material_id,formation_energy_per_atom,pretty_formula
mp-707845,-2.774871217,K3ZrHS(OF)5
mp-1180094,-1.798461768,NaZnMoO5
mp-1179227,-2.691365884,Sr5Cr3ClO12
mp-605344,-1.374612144,ZnH4SeO6
mp-740737,-0.620093992,CuH12(BrO6)2
mp-1201091,-1.191500587,Ge2RuC4(Cl3O2)2
mp-1198573,-2.072197584,Sr2YCu3(PbO4)2
mp-1203077,-1.90593186,Na3CoC2ClO6
mp-504476,-1.845056592,Cu2PO4F
mp-19339,-2.405526388,LaNiO3
mp-1196576,0.223077772,FeB6(CO)4
mp-18637,-1.777782352,Na2Cu3(GeO3)4
mp-5679,-1.943722489,CdSO4
mp-560444,-2.477278465,Cs2V4O9
mp-21784,-1.503164642,Mn3Cu3O8
mp-561186,-3.354690822,Sm3BWO9
mp-1203018,-1.507223251,Sr4Li2Ta2Al2N8O
mp-504570,-1.330834328,K3FeO3
mp-616515,-1.760015367,MnFeBiO5
mp-542161,-2.324028041,Mn3Ag2(P2O7)2
mp-3810,-1.478741593,Hg(AsO3)2
mp-8065,-3.359046787,K2Ti6O13
mp-1105343,-2.147480944,SrMn7O12
mp-553958,-2.356818589,Zn3(PO4)2
mp-1199109,-2.21236967,KCuB7O13
mp-6789,-1.775814164,Ba2Y(CuO2)4
mp-556753,-1.438068609,V2Cu5(HO3)4
mp-9595,-2.634867161,NbInO4
mp-19255,-2.436773625,TiFe2O5
mp-9298,-1.486160173,Sr(AuO2)2
mp-560919,-2.313713685,Na5Y(CO3)4
mp-704577,-2.640802311,Na2Co2(B4O7)3
mp-1190454,-1.939352008,BaHgAs2O7
mp-758128,-1.574720293,NaCoH2C3O7
mp-19508,-3.181332024,SrCr(Si2O5)2
mp-557577,-3.051162177,K3ScSi2O7
mp-1205023,-2.302752313,Sr4Mn2Bi4O13
mp-22550,-3.09413162,BaDy2CuO5
mp-11736,-3.489671819,ZrSiO4
mp-542789,-0.803606852,Li14Cr2N8O
mp-1201280,-2.181019866,BaV2O7
mp-639714,-1.830514991,TlVTeO5
mp-21212,-1.130959156,K2CoPb(NO2)6
mp-1201901,-0.928216073,CrPC5Cl3O5
mp-554278,-3.511964735,TiO2
mp-24623,-1.593983223,Rb2NiH8(CO5)2
mp-532650,-2.605226095,Ca4Mn3B3CO15
mp-18429,-1.142527383,KAg(NO3)2
mp-1239022,-1.652452187,Li2CuO2
mp-31906,-2.075487843,MnReO4
mp-608385,-2.43568232,MgWO4
mp-19155,-1.307589301,CrHgO4
mp-505262,-2.12961932,GdCuSeO
mp-1193625,-1.017615442,Mn3ZnO10
mp-1193069,-2.643630497,HoMnO3
mp-1204686,-1.670811281,CuSiO4
mp-559617,-3.266382043,HfB2O5
mp-772228,-2.470287527,CdP4O11
mp-560849,-0.884415707,FeH14C4NOF4
mp-1198174,-1.464525388,CuMo3O11
mp-23926,-1.611777926,K2HgH2Cl4O
mp-24758,-1.207088819,CoH20Se2(NO7)2
mp-1204954,-2.101742777,Cd12Ge17(B4O29)2
mp-19503,-1.68511156,MnTe2O5
mp-1202850,-0.205778377,Cr2HgN2Cl2O7
mp-559750,-2.681779631,Lu3Fe5O12
mp-1199416,-2.452770759,Eu2CoSi3O10
mp-20659,-2.317565985,Sr3NiPbO6
mp-1006058,-2.523254675,UCd2O5
mp-8957,-2.340165269,Na5TaO5
mp-1079516,-0.101404375,Cu(ClO)2
mp-1196286,-1.225394291,Rb3Ni2(NO3)7
mp-735521,-1.70700698,MnH6(OF)3
mp-4888,-2.91819349,NbPO5
mp-706446,-1.56621523,CsTiH10C4O13
mp-18950,-1.67975004,BaCa(FeO2)4
mp-23115,-2.452355235,Sr2CoClO3
mp-707294,-1.155204801,ZnP2H15C5NO9
mp-1203089,-1.808998141,K2Cr2AsHO10
mp-18841,-3.11714152,LaCrO3
mp-1103684,-2.024384307,Fe2SiO4
mp-5827,-3.502108462,CaTiO3
mp-17380,-2.028010695,Ba2Ca(PdO2)3
mp-559485,-2.467507715,V9O17
mp-19076,-2.794998734,HoCrO4
mp-1196488,-1.402334131,Zn2H10Cl4O5
mp-550553,-1.611641455,CdBiClO2
mp-19334,-2.148767737,Na4WO5
mp-1106130,-1.062692011,NaCoSeO6F
mp-29045,-3.766723175,La5Ti5O17
mp-8187,-1.592005397,K2ZnO2
mp-1196105,-0.961778669,H29Pd3S3N9O10
mp-1202701,-1.663232318,Co3P2(HO)16
mp-696851,-1.116607463,ZnH12C2S2(N3O4)2
mp-14139,-2.638835275,Sm3Fe5O12
mp-1203190,-1.453919171,Mn2O3
mp-16998,-2.861731833,Ba2Nb6Te2O21
mp-1106337,-1.641820795,MnPbO3
mp-1079620,-1.255324333,Cr(ClO)2
mp-744002,-0.826100762,CoH16C3N8O7
mp-24211,-1.136725406,CoH8(IO5)2
mp-766427,-1.83446801,K2NaZn2H5(C2O7)2
mp-5700,-1.795198865,Sr2Cu3O5
mp-745163,-1.956641141,Mn2Cu5P4(HO9)2
mp-561100,-2.313654277,CsMn2V2ClO7
mp-22554,-2.167470928,MnSO4
mp-624688,-2.942784991,Ta2O5
mp-6416,-3.278105867,Ba5Er8Zn4O21
mp-753358,-1.699089849,CoRe2(H2O3)4
mp-21957,-2.019785514,KNi4(PO4)3
mp-1199703,-0.736568955,Co2H36N13Cl5O3
mp-541126,-2.001631734,Gd2WO6
mp-1204212,-1.613180549,K4Mo6PtO26
mp-6245,-2.884003738,K5Nb4O12F
mp-555139,-1.850265336,Zr2Cu3H32(O8F7)2
mp-17646,-2.615385978,Yb2WO6
mp-559343,-1.969061379,KCu4(PO4)3
mp-1199569,-1.157318663,Zn2P3C(NO4)3
mp-554500,-1.948859043,Bi2WO6
mp-1196890,-2.522594934,ScRhO3
mp-27614,-2.915934864,Ca2V2O7
mp-555313,-2.781397082,ScBiO3
mp-17734,-3.093452003,SrHo2CuO5
mp-3671,-2.842297391,NaNbO3
mp-559477,-2.307177993,Rb5LiSi2NiO8
mp-1193956,-0.203188432,Co(NO6)2
mp-561065,-3.160092583,MgTi2(PO5)2
mp-558894,-3.01675244,Ba4Ti2PtO10
mp-556645,-2.338082675,RbNbAsClO5
mp-1104505,-1.783003056,KMn2Cr2O10
mp-1182613,-1.905217194,K3VO5
mp-643060,-1.192411936,ZnH4(BrO)2
mp-10942,-3.054348312,KNaLaNbO5
mp-555068,-3.083756147,Sr9LuV7O28
mp-1193175,-1.488421527,Na(RuO2)2
mp-1102591,-3.261813792,TiO2
mp-1182381,-1.790474186,MnP(HO)7
mp-1095571,-3.181669045,DyVO4
mp-18233,-2.069289999,Na5VO5
mp-23983,-1.971431346,V2NiP2(H4O7)2
mp-1195162,-1.813496485,Ba3V2H12(C5O14)2
mp-559464,-1.861938671,KFeO2
mp-572313,-1.04653693,Cu3Te2(BrO3)2
mp-17982,-2.361466432,SmCu(WO4)2
mp-16892,-1.526261902,Tl2CrO4
mp-11321,-3.848426382,Y3TaO7
mp-563041,-1.670494165,KV3Cu5O13
mp-19087,-1.840096349,Na3Co2SbO6
mp-557988,-1.517363601,Ni3TeMo2O11
mp-1202763,-1.473122654,MgWO6
mp-3249,-3.786276718,La4Ti3O12
mp-1191429,-1.314069704,K2PtC2Cl2O5
mp-505151,-2.304608772,Ca3CuIrO6
mp-1196911,-2.111282822,MnPb(SO4)2
mp-7471,-1.677697504,Li3AuO3
mp-9115,-2.466123837,Ba2SrIrO6
mp-756507,-2.015060187,LiFePHO5
mp-558049,-2.544381476,Na2V3P2O13
mp-18754,-2.793479925,DyCrO4
mp-698295,-0.296613035,CoH14C10(N4O)2
mp-24156,-1.221299416,CuP2(HO)4
mp-555952,-2.137195306,Sb4RuC6(O3F11)2
mp-1200037,-1.815491036,K5NaFe2(CO2)12
mp-649086,-2.054989248,GaFeO3
mp-766026,-0.687186864,RbCuSb2H2Se4O
mp-505170,-1.844004836,NaFe3O5
mp-18719,-2.688123885,KLu(WO4)2
mp-554177,-2.702454375,La4Cu3MoO12
mp-733866,-1.443064277,CuPH6NO5
mp-1204734,-1.823233732,V2Pb2Se2O11
mp-19304,-2.424514652,K2MnSO4F3
mp-662588,-1.159501137,SbRu2C6Cl7O6
mp-546125,-2.696844535,ScAsO4
mp-557438,-3.131171912,Sm2Ti3(BiO6)2
mp-554811,-3.198847905,TbVO3
mp-972600,-2.357272571,UCd(PbO3)2
mp-704604,-2.528133917,Zr(MoO4)2
mp-558255,-1.886052444,VAg2PO6
mp-563000,-0.848631729,Co3SnC12BrO12
mp-698222,-1.581734959,CrP2H15N2O11
mp-1201515,-1.714133363,Fe7Sb10(Cl4O9)2
mp-24067,-1.814729559,V3H4NO8
mp-560453,-2.495495807,Ca7Cu(PtO6)2
mp-561553,-2.787577197,Ba4CeMn3O12
mp-1203607,-0.892277851,CuH5C3NO4
mp-22655,-2.182453079,KNiPO4
mp-1193812,-1.637004717,Cd2(GeO3)3
mp-729903,-1.733679905,ZnInH14O7F5
mp-554656,-2.793965723,Li5VP2(O4F)2
mp-1191611,-1.29387705,TiCu(O2F3)2
mp-3727,-3.639920264,Nd3NbO7
mp-1195953,-0.370500733,KIrBr5NO2
mp-1201376,-1.533919322,ZnIn2(SeO3)4
mp-562797,-2.916908664,Ti2Co(PO5)2
mp-562546,-2.365933016,Na4Co3P4O15
mp-21326,-2.752907164,La2NiO4
mp-504722,-0.963948089,Ni(NO3)2
mp-645743,-1.650061231,VAgTeO5
mp-572487,-2.696652672,CsUV3O11
mp-1194072,-1.05731026,ZnPNO4
mp-28891,-2.501234475,Li7TaO6
mp-1191749,-2.516991917,Y2Ir2O7
mp-758075,-2.13095708,Fe2H4O2F5
mp-1201605,-1.79795251,BaRuO5
mp-999539,-1.988242997,MnO
mp-19184,-2.089710478,VO
mp-20069,-1.778719987,CoPb2WO6
mp-13563,-2.830460911,YP5O14
mp-19478,-2.055903467,VAg2(PO4)2
mp-1199843,-1.675619979,MnAs3(PbO3)3
mp-761745,-1.321674877,SrCd2H16(Br3O4)2
mp-22100,-2.59077434,MnNb2O6
mp-554059,-3.205618631,Sr2UZnO6
mp-556254,-2.001185319,K4Pt2(SO4)5
mp-555332,-2.859428081,BaCu(SiO3)2
mp-6391,-2.502919177,Na2ZnSiO4
mp-1103771,-2.614584735,BaLi2MnV2O8
mp-640553,-3.18899342,BaNb2O6
mp-6169,-3.443207012,Ba3Ta6(Si2O13)2
mp-1068742,-3.623060944,SrZrO3
mp-608357,-0.903047551,MnAgO4
mp-3074,-1.042801632,KAgO
mp-1196672,-1.181420737,Co2As2O9
mp-29347,-1.306763756,K2WO8
mp-1201917,-2.31086028,Na9Sc(MoO4)6
mp-1102713,-0.676308928,Cs2VBr5O4
mp-1105290,-2.06945687,Co3Sb4(OF)6
mp-504735,0.000856281,Ti3Ni3O
mp-17968,-2.538737425,Na2CaV4O12
mp-555961,-2.210221169,Ca3Zn3(TeO6)2
mp-1193267,-2.006039621,Fe2Cu(PO5)2
mp-1197322,-0.420451822,FeSnO6
mp-4843,-3.817969896,CeZrO4
mp-23821,-1.586505256,MnH4(CO3)2
mp-553924,-1.200337043,Ag4PIO4
mp-709021,-2.968531219,CaTi2(HO3)2
mp-19302,-2.780614841,NaCaVO4
mp-744610,-0.598055192,Mn2PH9(C4O3)3
mp-550514,-2.230348266,LaTaN2O
mp-707170,-1.489555379,CuH6SO7
mp-704097,-2.230013442,Sr6Co4Bi2O15
mp-24680,-0.785608111,RbH18RuN6(ClO2)4
mp-1192819,-2.840029383,MgFeSiO4
mp-556003,-3.555507632,CaTiO3
mp-5999,-3.329876836,Sm2Ti2S2O5
mp-18376,-0.868155813,KHgC3(NO)3
mp-5839,-2.967075376,TiPO4
mp-867132,-1.457769954,RbZnH2Se2BrO6
mp-19048,-2.724683924,BaWO4
mp-541483,-1.906796003,Rb3Sc(HO)6
mp-18848,-2.980374461,Sr2MgWO6
mp-17722,-3.65987481,PrTaO4
mp-1106068,-2.056396214,LaCr4(CuO4)3
mp-9059,-2.498292797,KLi6TaO6
mp-1191753,-1.404878443,HgWO4
mp-709428,-1.241878903,YH8C2S2NO9
mp-554356,-2.908097438,Na4Nb9(P2O13)3
mp-16799,-2.711442827,K3NdV2O8
mp-628588,-2.000039299,Fe4Si2Sn7O16
mp-557663,-2.703004962,MnB4O7
mp-1203851,-1.961350066,K2ZrS3O14
mp-698056,-1.910554208,Na2CdH4(SO5)2
mp-541097,-3.681295288,Zr3Pb(O2F3)2
mp-561063,-2.870110932,BaFe2P2O7F2
mp-680298,-3.172707481,Rb3Ta5O14
mp-18307,-2.28139258,Fe2PO5
mp-644334,-1.530662715,K2CoH4(SeO5)2
mp-1189831,-3.399400832,Gd3FeO6
mp-1200270,-1.018308817,CoH20C4SO10
mp-560515,-1.690399523,K4Ru2Cl10O
mp-758103,-2.220233921,YH2(CO3)2
mp-744347,-2.32285307,RbVH4(OF2)2
mp-562042,-1.4547791,Co6Te5O16
mp-5408,-0.977008759,Ag3AsO4
mp-555519,-2.061521989,Li2Cu(WO4)2
mp-510510,-1.748390496,FeP(H2O3)2
mp-1020610,-2.244503914,Zn2SiO4
mp-1200413,-2.558656243,Na2YbPWO8
mp-1199347,-0.977430521,Zn3P4H28C8(NO6)2
mp-649039,-1.763776899,Ga2Fe2Bi2O9
mp-541299,-3.122420165,Zr4Cd(PO4)6
mp-1201848,-1.601052513,KVH6SeO9
mp-561495,-2.389158466,Cs4CuSi2O7
mp-18776,-2.759694324,CaCoP2O7
mp-19305,-2.80768935,CaV2O5
mp-21976,-2.629894187,Ca5Cr3O12
mp-1101987,-2.351237675,Li2Ti(OF3)2
mp-15487,-1.012796712,Ag6Ge2O7
mp-744605,-1.238442285,CoPH4ClO3
mp-1195952,-1.954098101,VPH5O7
mp-554913,-0.99243333,Cr3Ag8(IO6)2
mp-1197087,-1.927627366,Mn3BPO10
mp-541933,-0.912878309,CrHg5S2O5
mp-735489,-1.672676636,KCaCrH10C6O17
mp-20980,-3.348244444,NaNdTiO4
mp-1193147,-1.520537477,Li(RuO2)2
mp-744600,-2.0406148,KVH2SO7
mp-18837,-2.580422268,KSc(MoO4)2
mp-704944,-1.606696099,VAg2O3F
mp-559934,-2.555148429,LiZnPO4
mp-1200662,-1.357421841,HgSO4
mp-28491,-1.373502835,Cu2SO4
mp-17766,-2.792162827,MnSiO3
mp-562404,-1.414665328,Li2Co3(SeO3)4
mp-18859,-2.798540226,Sr5Cr3O12F
mp-554793,-1.76674616,YH7C4O11
mp-554093,-2.528449718,Li9Fe3P8O29
mp-7980,-3.400163314,Ba3SrTa2O9
mp-558456,-0.83069615,Hg3Se4O5
mp-1201232,-0.044391583,KHgC2N2ClO
mp-32244,-2.561305178,LiNbWO6
mp-14996,-3.167421608,Na2Eu2Ti3O10
mp-24110,-0.788822272,CsH18RuN6(ClO2)4
mp-27686,-2.360421044,Cd2P2O7
mp-1200516,-1.305290344,In2Cu3(SeO3)6
mp-24475,-1.24246374,NiH6(CO3)2
mp-1103909,-1.109398525,MnSeO5
mp-19294,-2.396018634,LiFeP2O7
mp-541096,-3.246940466,CsUNbO6
mp-11022,-2.634393159,ScAgO2
mp-5986,-3.498295591,BaTiO3
mp-1078186,-2.215378798,KZn2BCl2O3
mp-1199289,-0.154270287,K4RuC6(N3O)2
mp-510349,-0.462915587,Ag13OsO6
mp-1200077,-1.547209261,MnP2O5
mp-637188,-1.34501064,Ag2WO4
mp-559028,-2.33499805,YCu(MoO4)2
mp-22999,-0.801005921,Hg3(ClO)2
mp-557042,-2.395918195,MnP4O11
mp-850445,-1.677427417,Na3Zn4As3H12O19
mp-23614,-2.690918352,SrNb2Bi2O9
mp-29298,-3.536612286,Ba4Ti13O30
mp-1193833,-1.203753268,Cu2PbSe2(ClO3)2
mp-27912,-1.237242595,Ni(HO)2
mp-560270,-1.827359669,CsCrClO3
mp-554190,-3.770962401,CaZr4O9
mp-863293,-1.897569921,KFe3(PO6)2
mp-1197546,-1.943513488,CaCuAsO5
mp-19098,-3.033532304,Ba2CaWO6
mp-556028,-3.297759233,Ca4Al6WO16
mp-5787,-2.085463371,SrCuO2
mp-19060,-1.427440442,Sr2Mn3(AsO)2
mp-19216,-1.947934262,Zn2Mo3O8
mp-21908,-1.850574402,Co(SbO3)2
mp-650112,-1.799001559,Fe3O4
mp-13675,-0.940960586,CdPd3O4
mp-19077,-1.966360182,CrAsO4
mp-680165,-2.600198335,Ba17Yb16Zn8Pt4O57
mp-28212,-2.475834583,Nb4O5
mp-18398,-2.070022382,CsV3(TeO6)2
mp-559240,-2.699617979,Li2MnSiO4
mp-18732,-2.5306458,TiNiO3
mp-558923,-2.351878226,KTbCr2O8
mp-1201089,-1.287294899,K2Cd(C2O5)2
mp-1180943,-1.245389432,K2HgCl4O
mp-19039,-1.888624317,CdMoO4
mp-560569,-2.272616648,KPrPdO3
mp-1189861,-1.948234106,Mn7BiO12
mp-19428,-2.737446679,K2RbTbV2O8
mp-554286,-2.981798296,La6Ti2S8O5
mp-554602,-1.359223819,Rb2PdN2(ClO2)2
mp-19450,-2.413901805,ScTl(MoO4)2
mp-21327,0.58999838,Rb3Ir(NO2)6
mp-542100,-3.102481316,K4Nb2Si8O23
mp-19035,-2.248032337,BaFeO3
mp-31416,-3.885661304,Ho3TaO7
mp-744434,-2.075671982,YNiH3SO7
mp-1604,-0.835619732,Pt3O4
mp-542018,-2.484953631,Sr2Fe2O5
mp-1189546,-1.329573458,Cd3GeO6
mp-557620,-0.570789557,Ni2Ag3O4
mp-558409,-1.915609739,Bi2Te2W3O16
mp-510036,-2.377592779,Fe2Cu(P2O7)2
mp-1201517,-2.814205774,Na2ErPWO8
mp-643203,-1.082082435,Cu6PbSe2Cl5O8
mp-1199268,-1.687345504,Na2Cr2H4O9
mp-18204,-2.690397133,Ba5Yb8Zn4O21
mp-558054,-3.220452789,SrLi2Ta2O7
mp-556491,-2.399367433,NaLiV2O6
mp-23628,-2.303411721,Co3B7IO13
mp-560687,-0.56753703,Nb3Te8I7O
mp-29747,-2.555138511,Ta4Mn11O21
mp-11992,-2.784105736,LiLa2IrO6
mp-26991,-2.436051703,LiCo(PO3)3
mp-21614,-2.847385515,SrV2P2O9
mp-6361,-3.071218201,NaSr3NbO6
mp-1104224,-0.868334983,K2PdO4
mp-6481,-2.845530047,Na2ZnSi3O8
mp-541324,-2.508349572,Sr2ErGaCu2O7
mp-699505,-1.492421443,KV5Zn(H8O11)2
mp-3368,-2.990837729,LiNb3O8
mp-558884,-1.422745702,CrP3H17N3O13
mp-29274,-2.178579978,P2PdO6
mp-558889,-2.285702478,Fe5Cu2(PO4)6
mp-558721,-1.234364314,K4Ni(NO2)6
mp-707413,-1.31137204,CuH12N2(OF2)2
mp-24345,-1.558022109,ZnH12(SO6)2
mp-25275,-1.787479409,MnO2
mp-20994,-3.045911193,TaO2
mp-541464,-3.047040108,La4Mn5(Si2O11)2
mp-556822,-2.389070568,Na2CuP2O7
mp-19075,-2.572885682,K2SrV4O12
mp-14482,-3.099444322,SrNb6O16
mp-504699,-3.16671805,Ba2UFeO6
mp-1201589,-1.382355348,Fe3Se3O10
mp-559289,-3.721507122,YTaO4
mp-1201031,-2.178713075,ZnAs2S4(O2F3)4
mp-23061,-2.187952024,VClO
mp-766269,-0.955473326,ZnPH5C2N4O3
mp-1084749,-1.975004774,TiZn(BiO3)2
mp-17870,-2.408307015,KYb(WO4)2
mp-558892,-2.155378621,MnVBiO5
mp-1103370,-2.4773411,Ce2Cd(SeO)2
mp-1079632,-3.382777996,Ba2CeNbO6
mp-755882,-3.058370167,MnAl2O4
mp-555215,-2.905347947,Mg2Mn(PO4)2
mp-556118,-1.896002184,BaHgO2
mp-1194706,-2.315512283,RbY(TeO3)2
mp-1200520,-2.270869723,CsZn3(PO4)3
mp-559516,-2.347618171,K3Nb(SO4)4
mp-1203163,-2.170591585,GdV(SeO4)2
mp-559489,-3.198881078,K2ZrSi2O7
mp-1103970,-2.16167407,FeSO4F
mp-1265277,-3.076235804,Ca3Mn2(SiO4)3
mp-1191296,-0.624263371,Zn5(NO8)2
mp-560714,-2.038690343,BaV4As4O19
mp-559606,-1.778075438,ScCr2Ag(H2O5)2
mp-22345,-0.625994601,TiCdO3
mp-1192576,-2.589857235,ErWBrO4
mp-4200,-3.364877092,ScPO4
mp-22417,-2.320288819,LiNiPO4
mp-720279,-1.49412982,Na4H20RuS4(NO9)2
mp-24547,-1.262437713,ZnH2(SeO4)2
mp-1104591,-0.595013071,Hg5(ClO)4
mp-510075,-0.709186411,Cs7Au5O2
mp-644424,-2.272860594,Sr2CoO3
mp-1197068,-1.67331741,VP2NO8
mp-762493,-2.493407254,KMnP3HO10
mp-744212,-1.214642857,NiPH4ClO3
mp-15126,-3.034787411,Cs2MnSi5O12
mp-3858,-3.079899225,NaTaO3
mp-774708,-0.820597524,ZnH12C3S4(N3O2)2
mp-27441,-0.998334249,Au2Se4O11
mp-1181411,-0.524240977,Fe4O13
mp-1182377,-1.456617144,Ba2CuO6
mp-1078906,-1.510880703,CoTe(PbO3)2
mp-555966,-3.522180508,BaTi2O5
mp-1020714,-3.553855372,Y4AlSiNO8
mp-561512,-1.488611754,K4Cu4Cl10O
mp-19126,-2.751381562,NdCrO4
mp-1200387,-1.547533788,NaFePH2(CO3)2
mp-1195207,-2.867746376,BaYFeO4
mp-8615,-2.965002959,NbBO4
mp-21243,0.037535073,TlHg(NO2)3
mp-562027,-2.833613061,BaCoSiO4
mp-1195248,-1.978249377,CsCrAs2O7
mp-19214,-3.155772453,CeVO4
mp-639978,-3.146187489,UMnO4
mp-649944,-2.431547494,Na2Cu3(SiO3)4
mp-557947,-2.503268386,KV2PO8
mp-22364,-1.735720659,CrPbO3
mp-583454,-2.3805851,Nb2Bi2PbO9
mp-600193,-2.012987164,Cs2PtC2(OF)4
mp-2133,-1.798659443,ZnO
mp-705159,-1.98565276,K2Co2(MoO4)3
mp-704268,-1.239593993,Mn3(AgO2)4
mp-540684,-2.084924913,Eu2(WO4)3
mp-655377,-1.176604192,CuH10SO9
mp-3079,-3.439687675,CaTa4O11
mp-505440,-2.317200657,Sr4Fe6O13
mp-1470,-3.049745216,Nb12O29
mp-560158,-2.633987872,Na3Zn(BO2)5
mp-7688,-2.128506759,Li2CdGeO4
mp-1190594,-1.746808308,CsMn(OF2)2
mp-30240,-2.449870321,Ca2CoO3
mp-16283,-2.994375263,KNa2Li3Fe2(Si2O5)6
mp-19253,-2.982961687,NdVO3
mp-756758,-1.048186828,CuH4(IO4)2
mp-1205162,-1.354723566,NpCrH8C2(NO2)4
mp-18718,-1.156735697,Ca(NiO2)4
mp-1196419,-2.347615792,Ta3Bi7O18
mp-557850,-3.021763957,SrFeP(O2F)2
mp-1104874,1.114066133,ZnMo(NO2)4
mp-16864,-2.374944558,RbV3O8
mp-6533,-1.456583934,NaLu(Pd3O4)2
mp-1196606,-0.69654058,Co3Te(MoO7)6
mp-20324,-2.203877779,Ba2LuCu3O7
mp-19262,-2.161974481,Cr2CdO4
mp-5455,-2.559503869,K6Ti2O7
mp-644324,-1.969680129,K2FeH4(SO5)2
mp-1104586,0.752548138,IrN5(Cl2O)3
mp-1199587,-2.966116246,Yb2VO5
mp-560153,-2.360459937,MnBiPO5
mp-505201,-1.625835126,Mn(Bi3O5)4
mp-552120,-3.520638953,YClO
mp-1196679,-2.933351998,Nb6O15F
mp-1201409,-1.315815347,CuP6Pd11O34
mp-3136,-2.81554926,NaNbO3
mp-556951,-1.103132598,CuH3C2NO4
mp-561273,-1.620666456,V2Cd6Se5O21
mp-2229,-1.650973223,ZnO
mp-1181782,-1.779930784,CuReO4
mp-6616,-2.199573481,Ba2HoCu3O7
mp-642787,-3.223782837,Y2V2O7
mp-743511,-2.12839437,CaV2P2(H4O7)2
mp-704946,-2.233934229,Fe2P4Pb3O16
mp-20718,-1.827737661,EuNiO3
mp-1195712,-1.733389134,K4H6W2S2O9
mp-1198193,-1.101236337,Nb5H50C12(NO7)3
mp-1195227,-2.027911592,NaY(Te2O5)2
mp-1105151,-1.297414293,Co3Se4(ClO5)2
mp-4421,-3.724555613,LaTaO4
mp-758349,-2.316381003,KFeP4(H2O7)2
mp-560228,-2.559182062,K6Ti2O7
mp-1205356,-1.868547534,ZnWO4
mp-1101823,0.434950929,Cd(N2O3)2
mp-566150,-2.163718932,In2Cu3(PO4)4
mp-547517,-1.887940771,Sr2Cu3(ClO2)2
mp-22772,-2.870989422,Sr2Nb5O9
mp-24540,-1.158789043,Ni3H2Se3O10
mp-745150,-1.960196316,VZnHPbO5
mp-17703,-2.107700024,BaHoCo4O7
mp-554475,-3.213568186,LaNb2ClO6
mp-6077,-2.605052103,Ba3SmRu2O9
mp-600169,-1.214624651,CoHCO3
mp-720912,-1.318633114,KZnH4Br3O2
mp-572788,-1.34746651,LaFe12O19
mp-29791,-3.293617254,Nd4PdO7
mp-18907,-3.037166543,Ca2MnAlO5
mp-15093,-3.033114041,Zr2P2WO12
mp-17477,-2.820234356,AlFePO5
mp-1199642,-2.294650093,Sr2V4Te2H2O17
mp-540795,-3.39894819,Ba3SrTa2O9
mp-720469,-0.8260055,H6Os5Pt2(CO)17
mp-555455,-2.690012756,BaYMn2O6
mp-557143,-1.482528827,Tl2Cu(CO3)2
mp-757463,-2.388739896,CsFeBP2HO9
mp-19136,-2.660404791,TbFe3(BO3)4
mp-19408,-2.434265754,LiV2O5
mp-735481,-0.831224793,CoH17C(NO)8
mp-1196559,-2.303334534,SmV2IO9
mp-1194561,-2.155617957,NaSc(SeO3)2
mp-12730,-2.658388228,Ba2YbRuO6
mp-640765,0.238066139,FePbC5N6O
mp-559822,-3.37268384,La2TaCl3O4
mp-707981,-2.324406167,Y4H9NO13
mp-3349,-3.501994567,Sr3Ti2O7
mp-1196372,-1.561243058,Tl2CoH12(SO7)2
mp-510654,-1.671265959,Cu2PHO5
mp-18857,-2.439596977,Sr2FeMoO6
mp-637295,0.643535175,ZnFeC5N6O
mp-29472,-1.778733907,Fe4As2O11
mp-1200371,-1.026621705,AgH36S8N11O18
mp-721077,-1.415128144,CsFeH24(SeO10)2
mp-510271,-1.260440569,CoH12(BrO3)2
mp-13546,-3.053271741,Y2Ge2O7
mp-1202256,-2.095617558,K4Cd3(PO4)6
mp-795621,-1.541479166,Ca2CrO8
mp-1178787,-2.444475369,VO2
mp-558381,-0.544131266,PtCI2O
mp-744574,-1.294094053,CoH6(SeO4)2
mp-14871,-1.065564994,Li16Ta2N8O
mp-10735,-1.776217625,Zr2O
mp-1020721,-2.345585989,Zn2SiO4
mp-695873,-1.770086227,ZnP3H12NO13
mp-1192577,-1.412313164,FeBi2Se2Cl3O7
mp-16307,-2.486449967,Sr2MgIrO6
mp-554228,-2.981404641,Na2VOF4
mp-17519,-2.804521775,BaV2(P2O7)2
mp-1084823,-2.684697699,Sr2CrSbO6
mp-14430,-2.825055313,Sr2YRuO6
mp-647840,-0.830252814,Fe2C8SO10
mp-20897,-2.214313797,Ba4Y2Cu6O13
mp-540716,-3.11070421,Ta2MnO6
mp-16779,-3.037843102,Ho2Ni(B2O5)2
mp-554136,-3.023924437,BaTb2Mn2O7
mp-22038,-1.476486053,RbFe(SeO4)2
mp-18899,-2.682045878,Nd2MnNiO6
mp-1190452,-2.416407092,Sm2CoTe2(SO7)2
mp-557644,-1.99376711,Ag2P2PbO7
mp-29332,-1.291951909,Pt(PbO2)2
mp-648179,-2.191549822,Cs3Mn3V4O16
mp-1017,-1.544906987,Zr3O
mp-553949,-1.116403395,Ag2Hg2(TeO4)3
mp-24816,-1.737612011,K2Cr2Cd(H2O5)2
mp-18957,-2.04396397,NaMnO2
mp-1203123,-3.292718512,BaLa2WO7
mp-773092,-1.730315697,AlNiH16N(OF)6
mp-1182283,-2.006896799,Ca2Mn(AsO5)2
mp-25993,-2.391933786,Li3Fe2(PO4)3
mp-18433,-3.67294995,NdTaO4
mp-560118,-2.728418571,YMoClO4
mp-19043,-2.924551275,LiV(SiO3)2
mp-559944,-1.789424686,YbMn4(CuO4)3
mp-696909,-0.878146461,NiH16C2S3N6O7
mp-23117,-3.206945498,La3W(ClO2)3
mp-28696,-1.613191264,K3FeO4
mp-699477,-0.538826775,NaH6RuN(ClO)4
mp-1194592,-0.764067144,AgI3O8
mp-581370,-1.610380398,YCu3Se2ClO8
mp-562854,-2.676675463,CsNb2BiO7
mp-1196239,-2.608798109,Lu(FeO2)2
mp-540995,-3.388406107,Rb5Nb3OF18
mp-703550,-2.188344264,LiZnPH2O5
mp-505139,-2.266669733,TiH2SO6
mp-1178826,-2.167695691,V2O5