material_id,formation_energy_per_atom,pretty_formula
mp-1202411,-2.247718455,Fe2PHO3F2
mp-1197360,-1.478621819,Na2Mn3P2H2(C4O9)2
mp-1196989,-1.872860599,ZnP2(H4O5)2
mp-755258,-3.220567236,TmVO3
mp-8196,-0.737908982,AgNO3
mp-551135,-2.598967035,BaCuB2O5
mp-641415,-2.005549493,PbWO4
mp-1201858,-2.35133078,Cs2BiPWO8
mp-1194945,-2.615722409,Ba3V4CoO14
mp-1020717,-2.334151562,Zn2SiO4
mp-552454,-2.714625739,SrTaNO2
mp-12161,-1.286896353,K2SrCu(NO2)6
mp-19495,-2.839167197,NdCo(BO2)5
mp-1205271,-1.530805617,Na2CuP4H18N4O15
mp-1095679,-0.565980344,Cu2BrO3
mp-6700,-2.966548611,Mg3Cr2(SiO4)3
mp-1181025,-0.481951561,KAu(Br2O)2
mp-697946,-2.388738179,Cs2Zr2ZnH12(OF2)6
mp-680761,-2.265499976,Cd3(PO4)2
mp-1190753,-3.394479594,TiO2
mp-561048,-2.096163473,K3VSO3
mp-1202981,-0.686955345,FeC7(O2F)2
mp-743841,-1.660607613,MnPH6NO5
mp-705116,-2.686438907,Sr2MnMoO6
mp-766957,-1.925189931,FeBP2H5NO9
mp-22245,-1.931663109,BaYbCo4O7
mp-1105117,-1.988222883,Ni3Sb4(OF)6
mp-735485,-0.895796508,CoHRu3(CO)13
mp-850868,-1.77939638,NbH8N2O2F5
mp-553966,-1.228300571,Li(CuO)2
mp-12911,-2.78958036,Ba2LaRuO6
mp-18751,-1.994865642,Mn2ZnO4
mp-554760,-2.145645243,V4HgO10
mp-19296,-3.142331477,SrVSi2O7
mp-24597,-1.081486324,Cr2CdH14(NO2)4
mp-555092,-1.552509296,K3WS3ClO
mp-13840,-4.032000908,Ho3ScO6
mp-1188660,-2.824073518,Ba2LuIrO6
mp-23597,-2.61770372,Sr4Mn3(ClO4)2
mp-505442,-2.287798017,Mn3BO5
mp-24426,-1.124615798,HgH2SeO5
mp-722867,-2.749523635,Ca3Cu5Si9O26
mp-1188729,-1.697225662,V(PO3)2
mp-31909,-2.613291027,Ta2Mn3O8
mp-18941,-2.166714648,Co2SiO4
mp-11912,-2.63342558,NaNd2IrO6
mp-561230,-2.361304236,K2BiPWO8
mp-1201576,-1.562710882,ZnCu2PH7O9
mp-562107,-2.325257383,Mn2V2O7
mp-19031,-2.41549652,RbVO3
mp-7999,-3.673482095,Y2Si2O7
mp-27719,-2.662686648,Al2CuO4
mp-9406,-3.489571757,Li2La2Ti3O10
mp-13128,-1.358860883,Cu2As2O7
mp-28908,-2.450744563,Ba5(RuO5)2
mp-867516,-2.781640533,Ba2Tb2Mn4O11
mp-1087477,-2.561841202,La2TcNiO6
mp-23427,-2.555008149,Ti3(BiO3)4
mp-1198565,-1.425358482,CuPb5Se4(ClO3)4
mp-1191972,-1.196507422,CdH10S2(NO2)4
mp-556581,-2.241325899,Fe2PClO4
mp-8837,-2.528530593,Ba3Er2Cu2PtO10
mp-1198791,-1.749964865,Sb2Te3WC4(OF3)4
mp-1196035,-1.585629413,Na6Zn3As4O19
mp-21792,-1.563007703,Na5CoO4
mp-559739,-2.990574324,RbVOF3
mp-554837,-2.196134876,Ba3LiIr2O9
mp-24164,-1.207379883,CuH2(SeO3)2
mp-559736,-1.748785229,VAgO3
mp-23838,-1.945966655,Zn2PH2CO7
mp-622785,-0.451955509,FeSNO
mp-3593,-2.673782922,Ta2Sn2O7
mp-19207,-2.514249301,Sr2CoWO6
mp-1193478,-1.346893328,RbMnCl3O2
mp-21072,-2.290186309,Ba2Nd2Co4O11
mp-16381,-2.603672947,NaMn6P7O24
mp-19027,-1.338821604,Na5CoSO2
mp-552200,-2.946717514,Ba2TaBiO6
mp-18975,-2.545278726,Na2SrV4O12
mp-22773,-1.682324247,CuWO4
mp-27913,-1.413950937,CoHO2
mp-6342,-2.641589552,LiCa3RuO6
mp-6278,-1.641764068,Zn2Cu(AsO4)2
mp-1194914,-2.773239023,Ba7V6CoCl4O21
mp-600167,-1.180630364,CuH6(CO2)4
mp-510459,-1.935675352,MnVCuO4
mp-1204908,-2.057874557,KUVIO10
mp-4243,-2.112197646,CaIrO3
mp-1199406,-1.624181485,V5NiH20NO22
mp-1304797,-2.388011671,Sr3InNiO6
mp-17899,-2.289796115,Mn3V2O8
mp-24362,-0.958706642,CuH6CN2O3
mp-745012,-2.167698978,Ni2P2O7
mp-1079971,-2.604648959,Sr2ZnMoO6
mp-1198130,-0.994681327,Ni2As2O9
mp-1202669,-2.344374248,Li2CuB4(PbO5)2
mp-24599,-1.513527607,H8W3Se(NO6)2
mp-695887,-2.336520451,K3Cu2P4HO14
mp-20936,-2.153243074,Ba2PrCu3O7
mp-24708,-1.583177909,ZnH8SO8
mp-636827,-3.209800342,TiO2
mp-645717,-1.505011717,Co3TeO6
mp-1195412,-2.053099022,Ca2Co2O5
mp-504554,-3.450300114,Ba5Ta4O15
mp-7711,-0.208123093,Ag2O
mp-542185,-1.42342808,NaCu4(AsO4)3
mp-1078874,-3.494566658,Ba2CeTaO6
mp-561272,-3.332574876,Nd3BWO9
mp-29360,-2.597525074,Cr2P4O13
mp-1199444,-2.910278578,Rb2ZrSi3O10
mp-556443,-2.514871222,Ba5Ru2Cl2O9
mp-20243,-2.908706517,SmFeO3
mp-865024,-2.321556181,MnP2H2O7
mp-19272,-2.79129812,TbCrO4
mp-8230,-2.485600186,Zn(PO3)2
mp-542896,-1.158186829,Fe2O3
mp-557339,-2.005296042,YbCu2(MoO4)3
mp-1201604,-1.737753302,Cd2BO4
mp-541990,-2.827728749,SrMn2(PO4)2
mp-6680,-3.327482038,RbCa2Ta3O10
mp-546035,-1.682844817,Cr3CuO8
mp-7762,-1.947793115,CdGe2O5
mp-19185,-2.448109751,Mn3(BO3)2
mp-581276,-1.23163472,Cu2Te2Cl2O5
mp-559176,-3.545274282,La4Ti5(Si2O11)2
mp-763482,-2.498763206,VPO5
mp-15801,-2.091311087,Zr3PO2
mp-1188385,-1.797630013,Fe2O2F5
mp-22826,-2.771453848,KNb8O14
mp-558344,-2.466709351,VSnPO5
mp-698211,-2.726828546,Ti3V2O9
mp-558277,-2.553485177,Ti3(BiO3)4
mp-556834,-1.623218731,RuCl(OF3)2
mp-20313,-2.446865558,Fe2SiO4
mp-650518,-2.60924969,Ca4YFe5O13
mp-19514,-2.786983003,Sr2CrO4
mp-559294,-2.271793743,K4WS3O14
mp-619126,-1.723083181,Ba2TlCuHgO5
mp-1201244,-0.884623056,Rb3IrBr6O
mp-646633,-2.444645251,V2Ni(PO5)2
mp-20092,-3.468806558,EuTa2O6
mp-504636,-1.735788241,K2MnO4
mp-1190367,-2.118288305,SrCdAs2O7
mp-15919,-2.38822351,BeAgPO4
mp-19030,-3.248822622,La4V5(Si2O11)2
mp-17113,-2.552354688,Sm2Ru2O7
mp-558830,-1.811958302,ZnTeMoO6
mp-555953,-2.270700685,Na2Cu2Si4H4O13
mp-9754,-1.450112458,Tl2Cr3O12
mp-687234,-2.413703812,P2WO8
mp-656144,-2.499361175,BaEuFe2O5
mp-697492,-1.859556917,BaV2Cu3(HO5)2
mp-18763,-2.952362498,BaNd2NiO5
mp-554918,-3.522757313,BaY6Si3B6(O12F)2
mp-556369,-1.086233508,CdHg2SeO6
mp-556402,-1.127992921,CuAg5As3O11
mp-11613,-2.966558948,Ba2CuSi2O7
mp-18929,-2.698775461,BaV2O6
mp-8074,-2.374504819,TaSnO3
mp-19368,-2.921363828,Sr2V2O7
mp-553913,-2.305034089,Fe2PO5
mp-7112,-1.629728612,Sr2Cu3(SO)2
mp-541323,-2.473827477,Sr2NdGaCu2O7
mp-1201367,-1.907592697,Na5Sc(C2O7)2
mp-2692,-1.506548291,NbO
mp-1200576,-2.21978254,NaSc3P8(H7O12)2
mp-1204107,-3.008887678,Al4Fe2Si5O18
mp-1095420,-1.96638786,ZnMoO4
mp-6569,-1.210903818,K3HgN5O11
mp-1197857,-2.170742811,WO3
mp-2311,-2.293447202,NbO
mp-15144,-1.364325798,ZnAg2GeO4
mp-558673,-1.829644066,Pb3WCl2O5
mp-18849,-2.451213648,Fe2P2O7
mp-540999,-0.256118974,Cs2CuO2
mp-1205238,-2.409713317,Mn2PO5
mp-19053,-2.938442712,LaVO3
mp-1190901,-1.686731886,VZn2IO7
mp-744084,-1.597268002,MnAgH8(OF)4
mp-19468,-2.840476279,YCo(BO2)5
mp-1192739,-2.460053914,Cs2V3O8
mp-1205087,-2.455666751,Sr2Fe2O5
mp-16812,-2.70568832,KVP2O7
mp-561337,-2.241204961,Al2W5O16
mp-1195324,-3.768978465,Pr2TiO5
mp-13664,-3.511312624,Sr2Ta2O7
mp-1202070,-2.388109869,Er2Nb2S7O30
mp-18815,-2.416740802,KVO3
mp-735553,-1.36328387,V3P2H12C3N2O15
mp-1201916,-2.400851179,Y2Te3MoO12
mp-1103950,-2.565182273,Ca2Mn(PO5)2
mp-1190493,-1.036372575,NiH5CN(ClO)2
mp-22796,-2.832167655,EuVO4
mp-1201732,-0.625394232,PrFeH8C6(N3O2)2
mp-1205312,-2.747036237,Ca2MnO4
mp-1178765,-0.525623883,ZnAu2(Cl4O)2
mp-1202439,-1.724183924,K2Cr2AsO10
mp-9765,-2.358391987,Nd2Pt2O7
mp-704626,-1.141278787,FeAg(SeO3)2
mp-560864,-2.592167526,SrZnNi(PO4)2
mp-19196,-2.783303368,La4Co3O10
mp-561158,-2.372921881,Na4Zr(MoO4)4
mp-17664,-2.345252547,LiNi2P3O10
mp-556859,-0.645212252,HgO
mp-645189,-1.652677735,CsKPt6(S3O14)2
mp-562987,-1.789884217,VCuO3
mp-1078227,-1.862269919,BaCoSO
mp-17993,-2.694372549,Ta2Mn4O9
mp-504969,-1.450409215,Ni3(AsO4)2
mp-1020636,-2.404665922,Zn2SiO4
mp-1104197,-2.26300739,BaYbFe4O7
mp-720739,-1.392140133,ZnP2H6O5
mp-1202027,-3.702443992,LaTaO4
mp-667397,-1.053057029,PRu4C15O14F3
mp-1106019,-2.401041058,CaFe(GeO3)2
mp-1204562,-2.277478998,Y2Mo(SeO4)3
mp-1200293,-0.804128165,K4Ag2Sn3S9O2
mp-1201807,-2.763099762,Rb2Ta2P7O24
mp-4156,-3.047851519,Li2ZrO3
mp-19266,-2.71185481,Sr2FeWO6
mp-10344,-3.365046771,Ba2PrNbO6
mp-653267,-0.639813161,Fe6Sn2(CO)23
mp-1194680,-2.538053138,TaTlV2O8
mp-22638,-1.564161689,Ni2GeO4
mp-1190935,-2.410571014,K2CuP2O7
mp-555364,-2.180034771,KVS2O9
mp-10426,-2.703146609,Nb2O5
mp-24706,-2.023677307,Co3AgP3(HO6)2
mp-18373,-1.382471437,ZnSe2O5
mp-19441,-3.174056942,CaCr(Si2O5)2
mp-983589,-1.212060633,Ag2GeO3
mp-29259,-1.41920117,Bi2PdO4
mp-29132,-1.206903762,RuCl2O
mp-21437,-1.755341196,Fe2TeO6
mp-620325,-1.775558924,CoCu2(BO3)2
mp-21317,-3.204795192,BaEr2CoO5
mp-1200500,-2.571170564,Na2ZrSi3O11
mp-619577,-2.654658968,K2V2P4O15
mp-709886,-1.518115931,CuH5Pb4SO11
mp-1204772,-1.623273781,Co2As2O7
mp-22024,-3.184017903,GdVO4
mp-1195138,-2.403915496,SrTiCu4P4O17
mp-560007,-1.642846983,Ba2Cu7(AsO4)6
mp-15002,-2.534188237,Sr2CaIrO6
mp-654359,-2.365538376,BaCu2(PO4)2
mp-581174,-2.343351238,K2V8O21
mp-720417,-1.204898361,CuH10SO9
mp-1194610,-2.346871439,K4Mg(WO4)3
mp-24559,-1.519542754,Rb2CuH4(Cl2O)2
mp-16282,-3.043887568,KNa2Li3Cr2(Si2O5)6
mp-9172,-2.714391581,Li4TiO4
mp-720868,-1.559963353,Ca2CdH24(ClO2)6
mp-559744,-1.481098998,KV(IO4)2
mp-1203024,-2.111085222,Sb2IrC3O3F13
mp-684010,-3.434948311,K8Ti5P2(O4F11)2
mp-645799,-2.444454265,VP2Pb2O9
mp-720876,-1.595733103,Cs2CuH12(SO7)2
mp-1198333,-1.658374325,Na5Cu2H14S4O19
mp-653562,-0.431190173,Ag3I(NO3)2
mp-553997,-2.518328041,Na2Mn(PO3)5
mp-707821,-0.681341679,Ru3C10I2O9
mp-3151,-2.858757229,Li3TaO4
mp-19353,-2.999792182,PrCrO3
mp-683668,-0.798929446,Mn2InC10BrO10
mp-1202574,-1.801703065,AgS2(O3F)2
mp-7461,-1.450697536,Hg2SO4
mp-1188169,-1.936268377,LiFe(GeO3)2
mp-505785,-1.469667241,CuP(HO)5
mp-22198,-2.627585036,Nb2NiO6
mp-554363,-3.499623662,Pr2Ti3(ClO4)2
mp-22518,-2.507050821,YbMnO3
mp-22571,-2.688852668,BaNdMn2O6
mp-720808,-0.883252512,H2Ru6(CO)17
mp-550893,-3.941274654,HfO2
mp-31901,-2.554234255,Mn4Nb2O9
mp-554748,-1.656791268,V2Cu3O8
mp-1195464,-0.688556325,Ag3RuO4
mp-19193,-2.168829201,CaFe3O5
mp-19134,-2.88347165,CaCrP2O7
mp-7251,-3.458157678,Ba2YNbO6
mp-4359,-2.403355735,Sr2PdO3
mp-19477,-3.036505904,Mn2Al4Si5O18
mp-600234,-0.633302386,CoH32C8S4(NO5)2
mp-29698,-2.914744421,Nb3ClO7
mp-561081,-0.74772135,CuH10C2(NO)8
mp-3120,-2.639467736,Tm2Cu2O5
mp-505076,-1.930216742,GaNi2BO5
mp-13695,-2.650659039,SmCuO2
mp-696457,-2.337705298,ScP3(HO2)6
mp-28337,-2.153717193,V4As2O13
mp-556208,-1.30657416,WCl3O
mp-558763,-0.924857211,Ag2Hg(SeO3)2
mp-1180482,-2.399573369,LiYb(WO4)2
mp-752913,-2.626681082,Li2FeSiO4
mp-554929,-3.195457332,CsNdNb2O7
mp-1196928,-2.273327755,MgZrP2(H2O3)4
mp-1192057,-1.537965565,Ag2S2O7
mp-6217,-3.481213152,LaSc3(BO3)4
mp-554483,-1.493321276,KCd3H8Cl7O4
mp-1201514,-1.532848932,K2RuO5
mp-554164,-2.624071919,KLiZnP2O7
mp-9413,-3.408388411,Ca2TiSiO6
mp-24004,-2.141740462,Zn2PHO5
mp-1079169,-2.702385373,Ba2NdIrO6
mp-551702,-2.477151235,Ba2CdReO6
mp-22557,-2.082700515,Ba5Co5O14
mp-554747,-2.865865405,Li5La3Nb2O12
mp-1205183,-2.637444334,KFe2P3(O4F3)2
mp-559772,-1.062170999,CrHg3O5
mp-1205131,-2.899762584,K2Na2Eu4Nb2O13
mp-3564,-3.698379991,BaSc2O4
mp-19234,-3.362615573,Ba2WO3F4
mp-556824,-2.088592487,Tl2Ni4P4O15
mp-19517,-2.591934554,KVPO5
mp-19215,-2.445567206,CaCrO4
mp-10299,-2.686106238,Ca4PdO6
mp-29787,-2.31818916,Ba5Pt2O9
mp-650526,-0.673744187,WC4(BrO2)2
mp-561355,-1.673638178,TiSCl6O
mp-18783,-2.445903512,Ca2FeMoO6
mp-758574,-2.588854001,LiFeSiO4
mp-6474,-3.27744864,Ba3MgNb2O9
mp-1200069,-1.375387126,Cu2MoSeO7
mp-555030,-2.912279576,NaY(PO3)4
mp-559899,-2.273981426,BaVCu4P4O17
mp-19356,-2.500573618,YbMnO3
mp-622110,-2.201518822,Ba2ErCu3O7
mp-22588,-2.984267881,LuFeO3
mp-557130,-1.624219745,Zn2TeCl2O3
mp-1191165,-2.133591595,ZrP2NO8
mp-541108,-2.575071864,Cd2Si(P2O7)2
mp-540828,-1.650857865,FeClO
mp-560181,-1.870497427,Cr3InO8
mp-560777,-1.710707849,K3Hg3S2Cl5O6
mp-1189762,-2.80681815,EuCrO3
mp-1215,-2.040922547,Ti2O
mp-1203923,-2.142091481,Cu3B6H2O13
mp-572871,-2.136421264,V2CoO6
mp-1192641,-3.434237805,Sr2Ti(SiO4)2
mp-555605,-2.607437021,KMnPO4
mp-618375,-0.505697279,Ag4Te(NO3)2
mp-1193012,0.354236065,PtN2(ClO)2
mp-550564,-1.374606068,Co2TeCl2O3
mp-697072,-0.946827842,CuHIO4
mp-1197537,-2.372865986,Na2FePO5
mp-721583,-1.35406371,CdH2SeO5
mp-611033,-1.690606925,SrRuO3
mp-557135,-1.555008728,VAgSeO5
mp-1196021,-0.617680652,CdCN3Cl2O
mp-705034,-1.607371005,CrPb5O8
mp-11023,-2.571345437,ScAuO2
mp-17630,-2.39004029,LuCu(WO4)2
mp-4630,-1.845563557,Li2RuO3
mp-18900,-2.628088942,MgV2O4
mp-697593,-0.724415788,Te7WCl5O
mp-558609,-3.458217987,Ce3Ta(ClO2)3
mp-744756,-0.837575767,CoHRu(CO)6
mp-1201776,0.562451525,CoN5ClO4
mp-542115,-1.028109642,Hg3Se3O10
mp-1078182,-1.620438418,Nd2Fe2Se2O3
mp-1200007,-1.942657653,Rb2Fe2As2O9
mp-558481,-1.175455055,ZnGaNO
mp-541331,-2.464887614,Sr2PrGaCu2O7
mp-541860,-1.895708822,TiAs2H4O9
mp-5503,-3.749791591,ErTaO4
mp-24018,-2.188340193,CaZnAsHO5
mp-23102,-2.447842746,Sr2Cu(ClO)2
mp-558800,-2.937415883,CaMn4(SiO3)5
mp-17981,-2.602296936,Eu3IrO7
mp-1105046,-1.98672375,ScAsO5
mp-1201539,-2.161432655,ZnBi4(PO6)2
mp-8459,-1.954313676,CdSO4
mp-9304,-2.153845327,DyCuSeO
mp-1195819,-1.56067215,Mn2TeSO8
mp-12362,-1.016803994,AgHg3SbO6
mp-556104,-3.035753686,La2CrO6
mp-24522,-1.556990961,CuH2SO5
mp-556847,-1.486364363,RbV(IO4)2
mp-15250,-2.534837511,NaCd(PO3)3
mp-17262,-1.781355053,BaCu2(AsO4)2
mp-1201569,-3.403174872,Sc2VO5
mp-38280,-2.987079226,LiTiO2
mp-18086,-2.084872516,SrCoAs2O7
mp-1202328,-2.644055174,Cs2CaV2O7
mp-14000,-2.880276789,UCdO4
mp-1019968,-2.94462058,LaZn(BO2)5
mp-6716,-2.559948169,Ba4Zr(RuO4)3
mp-553877,-2.167663316,CdMoPO6
mp-13602,-1.679368999,Cd3(AsO4)2
mp-541282,-2.536358581,KZr2(AsO4)3
mp-1205304,-1.599589408,TiI2O7
mp-1104572,-1.637462299,NaZn2(MoO5)2
mp-3224,-2.250704577,Mn7SiO12
mp-625548,-1.380868316,Cd(HO)2
mp-1189894,-2.879825939,Y2MnCoO6
mp-556318,-2.422651535,Cr4Si2Cl2O7
mp-1105409,-2.301982761,YSb(PbO3)2
mp-1200418,-2.462520175,Na4Th(WO4)4
mp-2278,-0.033627154,HgO2
mp-1180130,-2.245091191,NaZrP2O9
mp-18996,-2.198379073,TlV3O8
mp-555609,-2.500394743,Sr9Zn4(CuO7)2
mp-1198857,-2.284944614,Rb4V2S4O19
mp-510753,-0.565311634,NiO2
mp-18971,-1.191880538,Mn(PtO2)3
mp-1179147,-1.646791538,VH10SO10
mp-27601,-1.830215588,K2Cr3O10
mp-17404,-3.665594366,Y2Si2O7
mp-1197574,-2.766950181,Ba3NaMn4Si6O22F
mp-557210,-1.174940754,Cu3NiH6(ClO3)2
mp-733650,-1.255259301,CuH6(SeO4)2
mp-557939,-2.484725325,La4Ni3O8
mp-1193249,-2.232447485,Na5Cu3(PO4)4
mp-1195688,-2.915302128,Ba3Zn2B3O9F
mp-1200390,-0.375132832,Zn3Si14H90(C15O2)2
mp-18713,-1.806528155,Ba2Li(CuO2)3
mp-1195490,-1.112258364,NiH32C4S2(NO8)2
mp-757398,-1.686706563,NaMnP2H10NO10
mp-1191756,-2.170320412,FeSiO4
mp-29100,-1.525817549,Fe2Se2O7
mp-18717,-2.885087014,SrVO3
mp-19360,-2.798222592,LuCrO4
mp-17619,-2.817162067,Sc2Mn2O7
mp-651075,-1.983429994,Nb2Ni4O9
mp-772957,-2.606108687,SrV4O10
mp-31756,-2.543224716,Ba2FeReO6
mp-650943,-1.415128028,MnTeC5O6F5
mp-542397,-2.659433865,LuMn2O5
mp-22173,-1.930643957,LiFe(GeO3)2
mp-7911,-1.229895062,KCuO
mp-19290,-1.913599718,Mn2As2O7
mp-1198112,-1.876027877,NbP(Cl3O)2
mp-1204704,-2.46718426,Na3VP3NO9
mp-19347,-2.717613888,CaV3O7
mp-1105438,-1.151888655,Zn2As2PbO10
mp-1199199,-2.024722372,Rb3FeMo4O15
mp-744534,-1.010763391,VH8N2O5F
mp-20334,-1.003282046,CoCu2O3
mp-4198,-1.420704158,Ag3PO4
mp-15739,-2.144612982,BaZn2(AsO4)2
mp-22684,-1.367810702,Fe2NiO4
mp-20343,-1.096359661,NaAuO2
mp-22408,-1.410028377,CoO
mp-27742,-1.432175023,K2CdO2
mp-504549,-2.953726716,UFeO4
mp-558859,-1.989939432,VCdBiO5
mp-1190518,-3.279050319,Ta3Al4O14
mp-540937,-2.406982548,Na5La(WO4)4
mp-560520,-0.426297132,Fe3TeC9SO9
mp-19009,-1.037390508,NiO
mp-559180,-2.745333115,Ba2Cu(BO3)2
mp-1194612,-2.533236042,YNb(TeO4)2
mp-4710,-1.673833265,Hg3(BO3)2
mp-1196872,-2.493066846,Ba6Y2Co4O15
mp-734377,-2.002724229,KCdP3H8O13
mp-558570,-1.76964407,Na3FeO3
mp-1195222,-2.065887363,NbIn(TeO4)2
mp-1104323,-2.448783299,VPO5
mp-562833,-1.278528581,Co5Se4(BrO6)2
mp-604996,-1.006865532,CuH12N2(Cl2O)2
mp-6309,-1.545325528,La3Cu4(P2O)2
mp-766204,-0.962259651,ZnPH5C2N4O3
mp-558781,-3.663437478,ScTaO4
mp-1202294,-2.066650152,NiP2H2O7
mp-23999,-1.758668707,MnH2SO4
mp-1095626,-1.882786275,La2P2AuO
mp-505405,-2.037299991,TiMnH12(OF)6
mp-1194787,-2.4989105,Cd2B6PbO12
mp-31230,-1.576435699,Tl2Cr2O7
mp-562762,-2.11697978,Ba2CoSe2(ClO3)2
mp-19980,-2.352794328,LaFeGe2O7
mp-541580,-2.57862068,Ba5Yb8Ni4O21
mp-19793,-2.520724402,YbFeO3
mp-21083,-2.755630705,BaYb2CoO5
mp-541190,-2.374248297,Cs2LiVO4
mp-645272,-1.872239859,TlV3(SeO6)2
mp-1204346,-0.451316807,Fe2S2O17
mp-1179064,-2.484912662,TiOF5
mp-555924,-3.284446448,Ca5Nb5O17
mp-1198801,-0.95612461,MnH11C5NO6
mp-12193,-3.740785918,Nd2Ti2O7
mp-24100,-0.848000807,KCrH18N6(ClO2)4
mp-22186,-1.762729336,In6Ge2PtO9
mp-557853,-1.527949945,TiH8C4NO10
mp-28200,-3.146544089,LaNb7O19
mp-28254,-1.575118064,LiRuO2
mp-1181024,-0.054451603,HgSeNO3
mp-542153,-1.751458889,Co3BO5
mp-558289,-1.782018217,UAg2(SeO4)2
mp-558202,-1.174295035,Fe2Cu3(SeO3)6
mp-560076,-2.922795898,Nd2W2O9
mp-31488,-2.724732106,Li3NbO4
mp-561221,-1.792740425,TlCr3O8
mp-18846,-1.540951002,Na4(CoO2)7
mp-1019525,-3.026307973,Ba3ZnB5PO14
mp-15865,-2.848291426,RbScAsO4F
mp-6653,-3.489138453,Ba2ErNbO6
mp-1076932,-2.522487599,BaTiO3
mp-27884,0.713138631,Ti3Fe3O
mp-687090,-2.590728969,Hf(MoO4)2
mp-707138,-1.603389861,Ag2PHO4
mp-1096876,-0.405354798,CdO2
mp-10498,-2.869497329,Pr2CuO4
mp-645796,-1.93473442,TlFe(MoO4)2
mp-31132,-1.539497988,Hg4OF6
mp-1095395,-2.806213269,EuVO4
mp-560297,-3.205524813,LiTaSiO5
mp-545525,-2.408948288,NbCuO3F
mp-1198345,-2.449139426,Fe5(SiO4)3
mp-699251,-1.629091659,VH10SO10
mp-554324,-3.1800803,LiCa9Mn(PO4)7
mp-942700,-2.133539236,LiNiSO4F
mp-505219,-2.456880875,Rb2V4O9
mp-704915,-2.603325192,Na2Ni2(B4O7)3
mp-1193881,-0.840464097,KZnBr3O2
mp-14825,-2.078905259,Sr2ErCu3(PbO4)2
mp-554812,-2.032562399,CuB2(PbO3)2
mp-18296,-3.258826426,Ba5Dy8Zn4O21
mp-1200213,0.363003586,PdRh(NO)10
mp-558580,-2.719095638,Na2Zn(SiO3)2
mp-555373,-1.749959771,VP2Cl7O4
mp-19504,-2.307845348,BaV2(CoO4)2
mp-16803,-2.517409661,CaCo3(P2O7)2
mp-573180,-2.584774499,LaCoO3
mp-18885,-2.307466454,LaCrS2O
mp-1182987,-0.221530996,Ag(NO2)3
mp-697913,-2.320813969,HfP2(H3O5)2
mp-1197942,-2.764491105,Sr5Cr3O12F
mp-5957,-3.359140859,EuTaO4
mp-12540,-3.029549362,Zr2Mo(PO6)2
mp-1198660,-2.714149385,Y2(MoO4)3
mp-559150,-2.709331955,Na9ZrP4ClO16
mp-581206,-2.800524608,Ba5Eu8Zn4O21
mp-1190442,-1.779953779,FeSeO3F
mp-558610,-2.529806098,Sc(ReO3)2
mp-22112,-2.602443747,Ba2CoWO6
mp-558288,-2.2862834,CdAs2S2(OF3)4
mp-1190173,-1.325143922,CuPb3(ClO2)2
mp-558292,-2.148214427,Mn5Pb(SO4)6
mp-4643,-2.53670373,Nb2CuO6
mp-1203882,0.616339003,IrN4Cl3O
mp-560456,-1.183293212,Hg2Te2O7
mp-540636,-2.681511666,WOF4
mp-630511,-2.684950592,Ca2FeClO3
mp-558486,-1.282282337,Fe2Cu3(SeO3)6
mp-24500,-1.381623667,ZnH12SeO10
mp-553965,-3.214421209,RbLaNb2O7
mp-26980,-2.452153739,MnPO4
mp-1178760,-1.48160105,W2O7
mp-1203682,-0.974693596,Cr2FeNO8
mp-28649,-3.255547336,NaTi8O13
mp-19369,-3.103277875,Ti2CrO5
mp-695985,-1.383392532,NiH12SO10
mp-1192804,-1.814972305,KFeS2O9
mp-553883,-2.903510717,Ba3WCl2O5
mp-557792,-1.840588745,HfSCl6O
mp-541741,-1.97546574,Mn2Sb2O7
mp-1102017,-0.716523903,CdBrO
mp-1200936,-0.737284476,ErCoH8C6(N3O2)2
mp-6595,-2.231906068,Sr3CuPtO6
mp-1197762,-2.459138862,Na2Y3Te4(ClO4)3
mp-696290,-0.258933347,CuH8C4N8(ClO)2
mp-555027,-1.796497221,CdGe(BiO3)2
mp-1191317,-2.543245446,Sr2CoGe2O7
mp-555949,-1.172436029,KEuPdO3
mp-1101924,-0.103739745,NiSO9
mp-18269,-2.679691384,FeSiO3
mp-553912,-2.516396979,NaZr2(AsO4)3
mp-560123,-1.78300637,FeBi3(MoO6)2
mp-556213,-2.333655094,KMnVO4
mp-19364,-3.116228223,BaDy2CoO5
mp-559070,-2.472660098,Li2Hg(PO3)4
mp-560149,-1.720153607,SrFe2(SeO3)4
mp-6414,-3.203139111,Ca3Cr2(SiO4)3
mp-1204718,-1.942175315,Mn2O3
mp-505253,-2.985921752,U2V2O11
mp-12355,-3.601946028,Sr2YTaO6
mp-19461,-2.397753064,Na5Nd(WO4)4
mp-1181119,-0.71763415,Hg2ClO
mp-565234,-2.294762515,BaP4(W2O7)8
mp-1202581,-1.621730886,Cs2CrH8Cl5O4
mp-1197015,-1.864761208,CdP2(H4O5)2
mp-1202499,-1.635275559,BaZnRu5O11
mp-19125,-1.125192023,Na4W(NO)2
mp-1203158,-1.630621651,K2Cu(SO5)2
mp-540575,-0.879298389,ZnHg2H14C4N6O13
mp-1202889,-1.717618684,NaZnPH2(CO3)2
mp-562378,-1.670224262,SrCo2Te3(ClO4)2
mp-19293,-2.956343731,Sr2FeO3F
mp-18806,-1.882492484,Ni3(BO3)2
mp-17234,-2.89017921,KTiP2O7
mp-560496,-2.543553596,BaV2ZnO7
mp-19112,-2.058042508,FeSO4
mp-554763,-2.051713481,NpAgSeO5
mp-1193418,-0.923527981,YI3O11
mp-541424,-2.269548485,Na3V(SO4)3
mp-505238,-2.669374498,EuTiAgO4
mp-19269,-3.153820914,NdCrO3
mp-557424,-2.260138183,BaV(AsO4)2
mp-18761,-2.438700261,K3V3O8
mp-6476,-0.333196632,Ag3SeNO3
mp-7206,-1.537905448,TcAgO4
mp-558517,-1.734989477,K2Cr2HgCl2O7
mp-1196135,-1.436389087,Cs3Cu3Cl8O
mp-17085,-3.879704237,Rb2Zr3OF12
mp-22352,-2.271593404,Ba3InRu2O9
mp-27941,-0.537417438,AgClO3
mp-1198947,-0.318147554,FeHg2C6S2(NO2)2
mp-19949,-2.336563952,Sc2Cu2Ge4O13
mp-1197187,-1.387789917,Zn2Fe(PO6)2