material_id,formation_energy_per_atom,pretty_formula
mp-556759,-3.131144299,Ca5V3O12F
mp-1204714,-3.154894858,Ca4NbGaO8
mp-559209,-1.601154163,NaCuAsO4
mp-631350,-0.79607745,MnC5BrO5
mp-557871,-1.512576146,CuAsPbO4
mp-542289,-0.835156382,HgNO3
mp-17712,-3.163769025,Pr4V5(Si2O11)2
mp-504651,-2.423959917,CsVO3
mp-25294,-2.634496579,VP2O7
mp-1079747,-2.558122841,Sr2Ti2As2OF2
mp-554104,-3.188584778,Ca9Fe(PO4)7
mp-540706,-2.914569023,Na2Nb4O11
mp-1190845,-3.990540819,Nd2Hf2O7
mp-22102,-1.207769457,Na3Ir(NO2)6
mp-1095453,-3.18111966,TiSiO4
mp-1204163,-2.869076002,CaZrSi6O17
mp-18882,-2.672912407,VSiP2O9
mp-9454,-2.65085788,Sr3MgIrO6
mp-12515,-1.937430117,LaZnSbO
mp-17170,-2.378983043,HoCu(WO4)2
mp-6600,-3.233524871,K2Zr(SiO3)3
mp-1199320,-2.457113874,Na4Cr2P4O15
mp-744148,-1.1819718,MnH8(NO5)2
mp-541507,-2.949772817,Sr2VO4
mp-620033,-1.720269833,BaCu(SeO3)2
mp-1201897,-2.363963623,VAgP2O7
mp-557252,-2.226532544,K4V3S5O23
mp-27491,-2.058007517,Ca(Fe2O3)2
mp-19124,-2.617289568,Ca3Mn2O7
mp-645375,-2.067438799,ZnBi6P2O15
mp-684017,-2.301398371,Y2Te4O11
mp-1204715,-1.629421959,KFe3As4(HO8)2
mp-757573,-2.039556474,MnVHPbO5
mp-1020715,-3.460080139,Sr6Y2Al4O15
mp-3491,-2.533330213,NbSbO4
mp-557195,-3.165023655,KCa2Nb3O10
mp-1203935,-0.795649312,FeSO8
mp-573231,-2.290804115,CsVSO6
mp-559752,-2.516643385,CsZnPO4
mp-556177,-2.878555976,Cs2Cu2Si8O19
mp-1196087,-1.113633151,LiH12AuC4(SO3)4
mp-1195536,-2.617032219,CsLi5Mn(P2O7)2
mp-559589,-1.835335878,V2Ni(TeO5)2
mp-1018032,-2.20461015,SrCdO2
mp-1194823,-2.835253317,NaNbO3
mp-19119,-2.05226046,Sr2NiOsO6
mp-698271,-1.10270809,Ca3Ni2H8C10(S4O13)2
mp-560104,-2.770435546,LiTaGeO5
mp-4170,-3.065297328,NaTaO3
mp-8710,-1.811843191,Ca2Pt3O8
mp-30889,-2.605311353,Ho2Ru2O7
mp-1195912,-2.758666567,VPbOF5
mp-695976,-1.891453283,NiB6(H8O9)2
mp-4574,-3.217273239,YbTaO4
mp-6478,-2.76750438,LiTaGeO5
mp-1201989,-1.49253481,VP3(HO)6
mp-1204487,-3.168445132,Ta3O8
mp-1288,-0.408243434,AgO
mp-24144,-2.110219369,Na5ScH4(C2O7)2
mp-6625,-2.349872083,LaAgSO
mp-1202814,-2.104570077,MnP2(HO4)2
mp-19176,-2.604818687,La2NiRuO6
mp-1198870,-0.657102644,CdH4CS2(NO3)2
mp-505821,-2.411835691,NaV2O5
mp-714921,-2.350926649,V6O13
mp-20525,-1.614747181,CuSO4
mp-1204374,-1.945029308,K2Cr2Cu(PO7)2
mp-510056,-2.08386664,CaV4(CuO4)3
mp-1195963,-1.884631644,KZnP(CO3)2
mp-20702,-2.773383545,SmVO3
mp-1204808,-1.862356477,Na2Li2NiP6(H4O5)6
mp-980108,-2.924022158,Sm2MgIrO6
mp-29283,-2.146269648,CaMn7O12
mp-1200364,-1.054858177,Cd2S3(NO6)2
mp-1194479,-2.390853316,Na3Y(CO3)3
mp-641487,-1.773375542,EuMn4(CuO4)3
mp-545598,-2.931873398,UCdO4
mp-1190341,-2.409792321,Nd2CoTe2(SO7)2
mp-1105121,-2.550618562,Ti8BiO7
mp-707866,-1.76084027,SrZnH6O5
mp-16882,-1.985142524,ZnMoO4
mp-698301,-1.115874146,ZnH6C2(SO3)2
mp-4344,-3.746115906,HoTaO4
mp-18994,-1.50412289,CsMnO4
mp-687081,-2.210159018,YbCoO3
mp-24591,-1.445057769,ZnH2SeO4
mp-849785,-0.936513231,NaCrH22N6(Cl2O)2
mp-24132,-0.779000591,KH18RuN6(ClO2)4
mp-698227,-1.563300941,CrP2H13(NO5)2
mp-705061,-2.179819688,UAg2(WO5)2
mp-698633,-1.352123863,K3Sc(HO)6
mp-1200256,-1.703129551,AgCS2(O2F)3
mp-561744,-1.318427378,Na4CoAuO5
mp-560755,-2.562494316,CaVBiO5
mp-738639,-2.125147263,Ba14Ir8(PdO11)3
mp-1196529,-2.08676827,Na6W6Se2O25
mp-15994,-2.209949378,Hg(PO3)2
mp-27249,-1.307961197,CuCO3
mp-15520,-2.937573079,TbZn(BO2)5
mp-510725,-2.715724845,SrV3O7
mp-28331,-2.057027821,V2Zn4O9
mp-1197632,-2.031611491,Sr2V3Se5O18
mp-555657,-2.751360506,YCrO4
mp-542314,-2.305216076,NdCuSO
mp-559863,-2.420439739,Ba6Na2Cr2Ru2O17
mp-505223,-3.037670587,Ba2Tb2Ti2Cu2O11
mp-6613,-3.580237578,Ba2YTaO6
mp-510246,-1.781285137,MnP4H16(NO8)2
mp-29352,-2.290157221,Ba2PdO3
mp-1202299,-2.656045349,Na2Mg5Mn11Si12(AsO25)2
mp-14549,-0.778869571,CuO
mp-604429,-1.824489647,NaFe3H6(SO7)2
mp-1202476,-1.693955773,Cu2H6Pb5C(SO7)3
mp-1080029,-2.453337777,Ba2Mn2Se2OF2
mp-510562,-2.495001983,KMnP3HO10
mp-1189284,-2.245680185,CaV4(CoO4)3
mp-771112,-1.93527675,Li2Mn3NiO8
mp-20926,-2.391324846,BaNdCo2O5
mp-1190734,-2.850641086,ZrOF4
mp-983603,-2.007819672,ErZnAsO
mp-1192391,-2.200979999,RbLi2CdC2O6F
mp-505212,-0.876753235,Cs3AuO
mp-1191321,-2.902475571,NaNb6O16
mp-643471,-1.834336407,Ba2Y(Cu2O3)2
mp-12199,-1.81082971,Hg3(PO4)2
mp-555565,-0.813058717,Ag5(PbO3)2
mp-1200926,-2.140990124,ScV(SeO4)2
mp-18974,-2.444070687,HoNiO3
mp-1078216,-2.301423847,Sr2Ti2Bi2OF2
mp-22491,-1.615081834,PrFeAsO
mp-559511,-2.638630173,Cr3B7ClO13
mp-1201443,-2.630373614,Cs3Nb9(TeO8)4
mp-1204935,-2.390383555,Dy2Nb2S7O30
mp-9238,-2.974936572,Ba2UCuO6
mp-1180676,-2.980983026,La2CuO4
mp-555798,-1.903496218,VHg4P2O9
mp-505434,-3.482641651,EuTa2O6
mp-556331,-1.972299316,Sr4Pt4PbO11
mp-557010,-1.098272119,CdAs2S18N12(OF2)6
mp-19462,-2.559064399,KP2WO8
mp-561519,-1.475207172,NaFe(SeO4)2
mp-551826,-1.335456439,NbTlBr4O
mp-542187,-2.739180096,Sr2MnClO3
mp-1204931,-1.15537033,FeCu2As3O11
mp-24664,-0.92817232,ZnH8C2N4(ClO)2
mp-23787,-1.800819345,Na2ZnH8(SO6)2
mp-1194834,-3.558239917,BaSc2Si3O10
mp-541015,-1.632558351,ScH13Cl2O7
mp-542666,-1.942610041,K2Cr2O7
mp-558062,-1.839929365,K6Ti2S6O
mp-560765,-2.890898867,Rb4Nb35Al2O70
mp-1201379,-1.038789146,ZnH9C4NO6
mp-505209,-1.73216606,Rb2MnO4
mp-1197502,-0.979958957,CuH36S8I2(N3O4)3
mvc-12905,-1.389804038,FeO2
mp-744996,-0.967087555,CoH14N5O9
mp-707219,-2.476125661,K2Zr2ZnH12(OF2)6
mp-550998,-2.202516236,TiZn(BiO3)2
mp-7288,-3.447160008,Sc2SO2
mp-1205168,-1.162942568,NiH8(NO5)2
mp-1195661,-2.292558658,RbNa2Fe3P4ClO14
mp-1195522,-1.156293438,CoH7C3NO6
mp-555050,-3.215960317,BaNb2O6
mp-744862,-0.690864399,Cr3H24C8(NO5)2
mp-17394,-2.874701743,NaYGeO4
mp-1204043,-0.838204195,CoH18CN6ClO3
mp-636746,-1.987118645,VO2
mp-6150,-3.131645409,Na4Zr2(SiO4)3
mp-13207,-1.976072355,CeZnPO
mp-744208,-1.803201,Rb2CrH2Cl5O
mp-510351,-2.410887756,Fe7(PO4)6
mp-18812,-3.182742258,NdVO4
mp-1201003,-1.397763771,Cs4FeO4
mp-20472,-2.562910267,LaRuO3
mp-1200569,-2.609235592,Rb3Cd(BO2)5
mp-19254,-2.058662554,FeSO4
mp-555851,-2.441274856,Na2Cd3(P2O7)2
mp-23973,-2.227552033,KMnPH2O5
mp-542700,-1.669743766,RuC4(O2F3)2
mp-19199,-2.99908106,BaSm2NiO5
mp-9771,-3.556975883,UTi2O6
mp-505216,-2.558950722,Gd2Ru2O7
mp-12410,-2.779953457,Ba2TbIrO6
mp-13191,-3.555100201,Sc6ReO12
mp-10301,-2.809598769,Sr2ScIrO6
mp-21270,-1.946921469,LiFe(GeO3)2
mp-709325,-1.994631447,Cu5Si4(HO7)2
mp-761681,-1.470596119,CrHSe3O8
mp-746739,-2.549136565,SrFe3P4HO16
mp-30002,-1.44403813,Sc(IO3)3
mp-1195316,-2.516132559,SmFeGe2O7
mp-554864,-2.030505109,K2Ni(MoO4)2
mp-6062,-3.255374146,YAl3(BO3)4
mp-1192134,-1.437501024,CuPb4(SO7)2
mp-17290,-2.111928499,LiSbWO6
mp-19144,-2.270164252,Rb2W2O7
mp-704145,-2.26142078,Li2Mn2(SO4)3
mp-1067482,-1.013062763,NiHO2
mp-742819,-0.955065135,MoH12Pd(NO)4
mp-1203397,-1.665945864,ZrCdH10C6O17
mp-430,-3.446550726,TiO2
mp-1195303,-0.754915199,H6Pt(NO)4
mp-555109,-3.594991106,TmNbO4
mp-6641,-2.395056881,Ba3SrRu2O9
mp-1201529,-2.034098953,VB(PbO2)4
mp-561097,-2.937078562,Ti2MnO4
mp-19366,-2.549388586,Lu(FeO2)2
mp-1066856,-0.44670458,AgO
mp-764629,-2.267595064,Rb3NaV4H2O13
mp-767438,-2.524218889,YFeGe2O7
mp-1191807,-0.660742469,Cu2ClO3
mp-763244,-1.930373825,ZnFeH4O2F5
mp-774651,-1.801473938,LiZnAsH2O5
mp-556340,-2.764690456,CaTaNO2
mp-1193907,-2.040180608,SrIrO3
mp-22092,-2.201627983,VSO5
mp-19287,-2.955692687,NaV(SiO3)2
mp-758659,-1.182541634,H2RuC3(ClO2)2
mp-17541,-2.794045536,KSrVO4
mp-850513,-0.909926614,H12PtC6(N3O4)2
mp-1203931,-1.290539739,Tl2CuH12(SeO7)2
mp-867517,-0.784935201,V2Sn4H24C8O9
mp-6972,-2.729865751,YCuO2
mp-10348,-3.480994017,LaSc3(BO3)4
mp-1202591,-1.90019825,Mn2AsHO5
mp-3444,-3.753854577,ErTaO4
mp-19882,-2.226136637,MnBPbO4
mp-695935,-2.091510595,Na6ZnH4(S2O9)2
mp-644129,-2.012954593,KNiPH2O5
mp-1204701,-0.290742274,Cd(NO3)2
mp-1190534,-0.103067709,NbBr4NO
mp-1189473,0.13293958,FeSb(ClO)8
mp-1200652,-2.189515472,ZnAs3OF18
mp-1204490,-2.521128799,Nb2CuO6
mp-559188,-2.560966822,Hf(MoO4)2
mp-558573,-3.932117472,Y2O3
mp-1202300,-1.130785401,VH15C4S2(NO5)2
mp-22224,-1.642434626,MnSeO3
mp-581644,-3.688928228,Y2Si2O7
mp-22196,-2.533350201,Dy2Cu(GeO3)4
mp-1204184,-1.730899533,Mn5As4(HO2)10
mp-554313,-2.481216722,Nd2Te2W2O13
mp-699647,-0.800887321,Mn2SnC9ClO9
mp-744682,-1.634529746,Cr8Bi4O29
mp-1201420,-1.557734006,Rb2Y(NO3)5
mp-758882,-2.109356706,K2CoP4(HO2)8
mp-18177,-1.519600924,Ba3NbAs3O
mp-1101793,-2.83405209,YSeO3F
mp-10960,-3.347320224,Tb2Ti2S2O5
mp-20701,-1.324441616,K2BaCo(NO2)6
mp-15519,-2.929569637,NdZn(BO2)5
mp-18792,-2.384076728,Ca3(CoO3)2
mp-560923,-1.344015597,AgPb4ClO4
mp-561093,-1.946252207,Rb2Cr2O7
mp-562435,-1.527041787,Na10Co4O9
mp-1204540,-0.942924371,CaCd(NO3)4
mp-19165,-3.142770252,BaFe(Si2O5)2
mp-560688,-2.343999584,K4V5CdClO15
mp-27352,-0.865733446,Sr(Ag3O2)2
mp-17599,-1.837427404,CaCu3(GeO3)4
mp-654299,-0.703035794,Fe3C9(SO5)2
mp-20437,-2.058350229,Sr2SmCu3(PbO4)2
mp-18999,-1.963268708,NaMn7O12
mp-556798,-1.519036437,AgHg2PO4
mp-550300,-1.357968744,RbNa7(CoO3)2
mp-696089,-1.405833612,ZnH20S2(NO7)2
mp-3527,-1.279991887,Na3AgO2
mp-6571,-1.962540776,BaCuAs2O7
mp-1194538,-2.417593693,Nd10As8Au3O10
mp-549970,-2.543402505,Ba2ZnReO6
mp-757470,-2.158115961,K2ZnP4(HO2)8
mp-1244517,-1.560063257,Na3FeO3
mp-770968,-2.209195149,Na3NiPCO7
mp-20794,-2.560908263,Sr2NiWO6
mp-867643,-1.134580568,NiH16(ClO8)2
mp-540566,-1.722677467,V2Hg2O7
mp-27548,-1.339019854,CuTe2O5
mp-561642,-2.367898322,Sr2CoTeO6
mp-18554,-2.738405254,Mn4Be3Si3SeO12
mp-555930,-3.106337833,Pr3W(ClO2)3
mp-1203102,-0.774585013,V2CuH18(N3O5)2
mp-555665,-2.38644712,NaVO3
mp-540750,-2.844621069,CsNb(PO4)2
mp-559927,-2.954060206,Tb2Cu(BO2)8
mp-1095039,-3.206483932,Sr2HfCrO6
mp-1203728,-1.781922755,Co5(PO6)2
mp-38418,-3.7964135,Tm2Ti2O7
mp-4280,-1.682590213,GaCuO2
mp-6428,-2.844578005,Ba2YRuO6
mp-555775,-2.620248319,Mn3B7BrO13
mp-582657,-0.820276005,Ti4Te9I4O
mp-22373,-1.707560385,CrPb2O5
mp-1200431,-2.679878929,BaTbMn2O6
mp-556582,-0.834894638,Cu(IO3)2
mp-554949,-2.35359604,Ba6Ru2Pt(ClO6)2
mp-16967,-2.211647208,CaV4(AgO6)2
mp-14864,-2.908061528,Cs2Ti(PO4)2
mp-20370,-1.716708936,UCuPO
mp-549711,-2.003670862,CaFeClO2
mp-33948,-3.786042177,Ho2Ti2O7
mp-559560,-3.504318195,Nd2Ti3(ClO4)2
mp-21616,-2.325101563,Mn4Be3Ge3SO12
mp-1080670,-2.494090141,Sr2LaCoO6
mp-867973,-1.217211056,Zn3(PO6)2
mp-1178708,-0.340805916,ZnPb(IO4)6
mp-1192181,0.922633102,AuC4(N2O)2
mp-863294,-2.355031727,RbVGa(PO5)2
mp-1197693,-0.936675105,YSe2NO11
mp-554905,-3.120393297,CaZnSi3O8
mp-1188494,-2.638773424,Eu2MgIrO6
mp-1195282,-1.39548158,ZnH6Cl2O3
mp-560349,-3.733370773,La3NbO7
mp-582856,-3.224571228,EuZr6(PO4)9
mp-23689,-1.778828825,Na2CoH8(SO6)2
mp-1199387,-1.206432952,Cr4BiNO14
mp-22993,-0.5251094,AgClO4
mp-21406,-3.244905336,Eu3TaO6
mp-24828,-2.654406222,BaCoBP2HO9
mp-14704,-2.836423006,Li6Y(BO3)3
mp-353,-0.327671451,Ag2O
mp-559893,-1.392690876,LiBi(PdO2)2
mp-17142,-2.664605289,NaCrP2O7
mp-19073,-2.4668079,La2Ni2O5
mp-14532,-3.220164252,NaTa3O8
mp-27624,-2.705686134,CaV2O6
mp-780255,-3.701175929,Gd3NbO7
mp-24537,-1.161451847,FeH8(BrO2)2
mp-720283,-0.78437045,K2H6PtC4N4O3
mp-6018,-2.583094825,Ba3NdRu2O9
mp-23089,-2.849764576,SrTa2Bi2O9
mp-557920,-2.382930621,Zn3(PO4)2
mp-6054,-3.292928867,Ba5Tm8Zn4O21
mp-20798,-2.119865053,MnGeO3
mp-574915,-1.972360529,LaFe12O19
mp-13166,-1.915414008,YbAgO2
mp-1197530,-3.113168913,Ca2Al2FeSi4BO16
mp-12932,-3.743209329,TbTaO4
mp-707169,-0.730086672,CuH4C3ClO2
mp-1188863,-0.576082403,Zn5Cl2O9
mp-541695,-0.822293028,W(CO)6
mp-707250,-1.606548675,CaZn2(H5O4)2
mp-541991,-1.624754729,CuMoO4
mp-23815,-2.048486966,CaCoAsHO5
mp-558314,-2.065266595,TaBi4ClO8
mp-562220,-0.727054136,CoSb(CO)3
mp-16837,-2.668940035,Nb3AgO8
mp-722271,-1.040685871,H14RuS2(N2O3)2
mp-697156,-2.197352544,BaCu2P2H2O9
mp-545756,-1.945788412,ZnSO4
mp-1193947,-1.472645905,BiW2(Cl4O)2
mp-1079427,-1.321985389,Na2CuO2
mp-21770,-1.2473587,Cu4As2O9
mp-3901,-3.527710192,NdNbO4
mp-1084840,-2.220773035,TiZn(BiO3)2
mp-18925,-1.968065333,Li6CoO4
mp-19344,-1.99281776,Cr2NiO4
mp-1191056,-0.937916532,CdIO4
mp-558768,-0.976193232,Ag2TeO4
mp-1192817,-0.447990443,Cd(NO5)2
mp-1205026,-2.745149357,K6Ta3O8F13
mp-6250,-3.307099326,BaTm2ZnO5
mp-560917,-2.499561088,Mn13Al4Si2(SbO14)2
mp-23972,-1.98501718,Fe2P3(HO3)3
mp-21512,-3.045137482,Ta2CrO6
mp-558956,-2.583773983,K2VPO6
mp-744458,-0.630123438,MnPH2(CO)4
mp-24752,-1.697193811,MgFe2P2(HO)18
mp-29507,-1.586088632,V6Cu11O26
mp-1197175,-3.240381399,KLi3Ca7Ti2(Si6O19)2
mp-22526,-1.592818664,LiCoO2
mp-556674,-2.57451827,Ba3LuIr2O9
mp-27994,-0.405449101,HgBrO3
mp-555525,-3.080262196,Sm3RuO7
mp-557936,-1.363713287,Zn4Cu5(TeO6)3
mp-10093,-3.186536279,Sr2YbNbO6
mp-19080,-1.939120385,Na2Mn3O7
mp-705059,-1.845418446,TlNi4(PO4)3
mp-23565,-1.549455669,Cr4AgBiO14
mp-1105431,-1.927635936,Mn7PbO12
mp-652683,-2.138668905,Ba2Fe6O11
mp-18267,-2.054273406,La2Cu(SeO3)4
mp-555736,-1.660147465,BaHg2(ClO)2
mp-653817,-0.628495711,Fe6Ge2(CO)23
mp-16928,-3.116999069,Ba6Lu2(WO6)3
mp-1078887,-2.975011377,Sr2MnNbO6
mp-28365,-1.335864512,Na3AuO2
mp-1199337,-0.739861757,Cu3TeO8
mp-1020631,-1.904630078,ZnGeO3
mp-17101,-3.248413999,CaNb2O6
mp-1200091,-1.200694909,Zn3(PO6)2
mp-546936,-1.21777148,Co(RhO2)2
mp-759925,-1.24986086,Zn2Hg2H2Se2O11
mp-24476,-1.425666529,MnH6(CO3)2
mp-21307,-3.092362489,NaEuTiO4
mp-1205067,-1.693235334,KNa4FeO4
mp-1199629,-2.436761747,Ba2CdP4(H3O8)2
mp-4155,-3.26688955,Ca2Nb2O7
mp-706284,-1.421100615,ZnH20S2(NO7)2
mp-10062,-2.6837508,Ba2NdNb(CuO4)2
mp-19218,-2.530766788,Sr3Fe2O5
mp-1197873,1.12749467,CrN3O4
mp-1019589,-3.821234902,Ce3Zr5O16
mp-18182,-2.413237074,CsNa3TiO4
mp-10729,-0.392211994,Pd2O
mp-1204789,-1.187893336,CaCrO6
mp-6227,-3.166705422,Ca2ZnSi2O7
mp-558525,-2.238330853,V4Fe2O13
mp-23341,-1.341243842,Bi2Pt2O7
mp-19007,-2.610831749,V2PO5
mp-650984,-0.506951479,Ru6C17S2O17
mp-654225,-1.433473686,KFe(SeO3)2
mp-560478,-3.603662474,BaY2Si3O10
mp-14226,-1.007366568,Ba2YSbO6
mp-23092,-2.960784538,Ba2TaBiO6
mp-541993,-1.783658951,V2Se2O9
mp-696580,-1.678247182,FeHO2
mp-723480,-1.725933733,BaZn3P4(H7O9)2
mp-504752,-2.112223307,Fe3BO5
mp-1191290,-0.251518883,Hg2SN2Cl4O3
mp-1095163,0.244912001,Pt(Cl3O)2
mp-28675,-3.000086995,Ba2Nb15O32
mp-1203780,-1.12259562,Zr6B(Cl3O4)6
mp-1190354,-2.1676346,Yb2ZnTe2(SO7)2
mp-19102,-2.586937051,Sr2FeO4
mp-583424,-1.187696418,Cs5CeCu2(NO2)12
mp-21457,-0.938398059,Ti3Cu3O
mp-1202965,-2.535111672,Nb4Ag2O11
mp-21823,-1.653803228,Mn(PbO2)2
mp-581324,-1.544435021,Ba2VI5O17
mp-733848,-1.325811674,CdRe2H8C2(N2O5)2
mp-552604,-2.460292963,YBi2ClO4
mp-20529,-2.152465616,Ba3NaIr2O9
mp-14726,-2.441610282,Na4TiO4
mp-722315,-1.30935658,ZnH3CNO3
mp-27557,-1.730584608,Na8Fe2O7
mp-1192522,-2.645212365,Ba2CuP2O9
mp-647385,-2.011044431,V2Pb4O9
mp-943492,-2.341384901,LiFeSO4F
mp-744268,-1.389451772,CsFeH4Cl3O2
mp-735597,-0.424384414,K4H4WC8(N4O)2
mp-1192212,-1.009899988,Rb3NiO2
mp-18137,-2.899022825,TaVO5
mp-770416,-3.312967596,Dy2WO6
mp-23808,-2.895723332,KScBP2HO9
mp-6856,-2.704331528,Be3Zn4Si3SO12
mp-19264,-2.226007151,Co3(PO4)2
mp-557528,-1.759031363,ScH3(CO2)3
mp-1069079,-1.753043532,FeBiO3
mp-558431,-2.394530104,LiCu(PO3)3
mp-13641,-2.69148761,TiCdO3
mp-547074,-2.322024312,VO2
mp-1195390,-0.68827726,H26Pd5(C11O8)2
mp-1204488,-1.03909249,Cu3H10(C4O7)2
mp-1202051,-1.608103209,ZrHgH10C6O17
mp-3180,-2.509058784,Ta2Te2O9
mp-18775,-2.13699628,Fe3PO7
mp-3502,-1.618601625,Zn2Te3O8
mp-18096,-2.817605975,Na2Co(Si2O5)2
mp-14065,-2.366199464,Na2TiZn2GeO7
mp-18838,-2.586565662,K2MnSO4F3
mp-14678,-3.817438338,Y3Sc2Al3O12
mp-1203975,-1.787684193,YV5(H12O13)2
mp-1190593,-1.713189586,Mn2ClO3
mp-766713,-1.728224866,ZnFe2As2(HO5)2
mp-1192336,-2.754973038,Nb2PbO6
mp-1197774,-2.324099331,RbFeCu(PO4)2
mp-18498,-2.928261691,Sr3YRhO6
mp-558286,-1.794205372,CuSb(MoO4)2
mp-541929,-2.544147204,FeSiP3O11
mp-17436,-0.573996586,TlFeC3NO4
mp-1201217,-1.99471697,CsVSeO5
mp-19189,-1.643576859,K2Co(SeO3)2
mp-649195,-1.024172043,CrC5SO7
mp-1203981,-0.762458188,Y2N6O25
mp-18748,-1.333512759,Co3O4
mp-1194971,-1.165042583,Ni5Se4(ClO6)2
mp-24231,-1.216103363,NiH12(ClO3)2
mp-622497,-2.521703141,V3O5
mp-542742,-1.210225948,CoH6(CO3)2
mp-1197728,-2.538036475,Fe2B(PO4)3
mp-558700,-1.083064937,Cr2(Hg2O3)3
mp-22006,-2.203306052,VMoO5
mp-21652,-2.433441097,Sr8CaCu4(ReO8)3
mp-1198675,-0.089682343,CsRu2C8(ClO4)2
mp-1192472,-1.686342195,CuAgPO4
mp-22034,-1.355813027,PrFePO
mp-18782,-2.050435452,LiFeO2
mp-1205468,-2.872451244,BaNb8O14
mp-1198472,-2.413773118,Li2V18O39
mp-562836,-1.79802786,SmCoSe2ClO6
mp-8212,-1.090643024,Cd(PtO2)3
mp-19056,-3.077841243,HoMnO3
mp-696630,-2.564802209,K2MnH2OF5
mp-557684,-3.17446303,Er2V2O7
mp-1097003,-1.312073286,FeO2
mp-744577,-2.166559247,FeP2HO7
mp-3666,-3.136345967,LiTaO3
mp-758930,-1.614645717,Na5FeHO4
mp-1194869,-2.430573975,NbTlV2O8
mp-557107,-2.512988783,NiB4O7
mp-550763,-1.3659632,CoSb2Br2O3
mp-628617,-2.28227254,Cs4K2Cu(SiO4)2
mp-1199648,0.971737837,CuN6(ClO4)3
mp-553895,-2.193668093,SrV4(Bi3O10)2
mp-505819,-1.463169355,TlFeO3
mp-554152,-3.26126223,Sr4Al6CrO16
mp-735524,-1.541158059,VP2(HO)6
mp-559790,-2.445322811,K2Nb3Cl7O5
mp-15901,-3.22226459,Li2LaTa2O7
mp-541317,-3.007290507,KTi3Si2P6O25
mp-504573,-1.95010727,Cr2CuO4
mp-557661,-2.19851438,Sb4PdC4(O2F11)2
mp-6119,-3.371881947,Na2Nd2Ti3O10
mp-1188411,-0.258747817,Hg(OF)2
mp-27492,-2.00905472,CaFe5O7
mp-4019,-3.566579743,CaTiO3
mp-18743,-2.91314738,CaMnP2O7
mp-7640,-3.532472217,Sc2Si2O7
mp-1192422,-1.346947656,KMnH3(CO2)3
mp-1179108,-2.989254306,ScO2
mp-22020,-2.230989095,Ca2NiOsO6
mp-17056,-2.552156305,LiZnPO4
mp-1190434,-1.734078536,Li2IrO3
mp-1193420,-1.946744089,VAsO5
mp-13285,-1.088934386,NaPd3O4
mp-1198234,-1.662931165,Li3V(H4O3)4
mp-758895,-2.653679816,Ta2Tl2P7HO24
mp-16605,-3.643828064,Sr2TmTaO6
mp-1180198,-1.377046387,MnH4(CO3)2
mp-556848,-2.181260135,CaTa2Bi2O9
mp-24509,-0.909722095,CdH4(BrO4)2
mp-15472,-2.490708439,Ba4LiCu(CO5)2
mp-1198358,-1.996511158,B2Pb6WO12
mp-23119,-1.018423721,Cu5Se2(ClO4)2
mp-557385,-1.321980068,K4Ru(NO2)6
mp-18990,-2.963478539,Ba2Mn(BO2)6
mp-1197460,-2.890831814,Al4Fe(SiO6)2
mp-18798,-2.577605093,Sr2Mn2O5
mp-622576,-2.230081144,Ba2Sm(CuO2)3
mp-17359,-2.882721973,CsTiP2O7
mp-1182550,-1.298017428,Ba2ZnO6
mp-698158,-1.307675949,VH7(CO2)4
mp-505814,-3.141097567,CsBa2Nb3O10
mp-18983,-2.451429283,ErNiO3
mp-1202687,-2.008901994,Hg2BOF4
mp-557276,-3.01411769,Ca2VClO4
mp-1204526,-1.114493407,K4NaV10O38
mp-6723,-2.414794513,Sr3ZnIrO6
mp-683887,-2.230892211,Ba5Na2Ru3O14
mp-561991,-3.056951912,Ca3ScCoO6
mp-21036,-2.02308982,NaMnO2
mp-735530,-2.685816077,Ba2Fe3P6HO22
mp-1182375,-2.123111202,BaMn4O8
mp-1188788,-1.023567104,Zn2Cl5O2
mp-17201,-3.330073165,Er2WO6
mp-644295,-3.149488983,CaZrGeO5
mp-1078664,-1.698599788,Pr2Mn2Se2O3
mp-560794,-2.753364218,BaNbTePO8
mp-1195054,-1.312177107,Na4Cu4H18C8O23
mp-662575,-2.355091871,Sr2EuGaCu2O7
mp-636215,-0.657687874,FeC3SO3
mp-746324,-1.201008767,V2As3H17C4N8O17
mp-5867,-2.970045278,K3Nb8O21
mp-12644,-3.515518001,Ba2LuNbO6
mp-4408,-3.86557981,Sm2Zr2O7
mp-1192218,-2.69379528,Pr3Mn2Sb3O14
mp-17807,-3.22537606,LiUNbO6
mp-540767,-2.014309553,Fe2(SO4)3
mp-554533,-1.628827389,Hg2Mo2O7
mp-1191495,-1.124514924,K2CuTeO7
mp-6693,-3.043185889,CaZn(SiO3)2
mp-6276,-2.120924498,K2Cd2(SO4)3
mp-559984,-1.314708257,Rb8AlAu3O4
mp-557349,-2.498476884,Mn3Nb2ZnO9
mp-1106049,-1.00380505,CoAgO2
mp-14243,-1.52968146,Cd3TeO6
mp-680067,-0.33311475,Ag2CSNClO4
mp-23413,-2.524005194,NbBiO4
mp-23329,-1.957867718,Bi2WO6
mp-18752,-2.560288277,BaYb2NiO5
mp-9146,-1.047417181,CdHgO2
mp-628637,-1.162992351,Cu3BiSe2BrO8
mp-510473,-0.365489506,FeH9C3N7O2
mp-738684,-1.667718483,K5YH8(CO2)8
mp-20852,-2.964293216,NdMnO3
mp-1102108,-0.981645851,Cs2VCl5O4
mp-540914,-1.729746521,K3MnO3
mp-1190669,-1.239483558,K4Ti4I12O
mp-22531,-3.433128223,Ba2GdNbO6
mp-18640,-3.028807341,LiTi2(PO4)3
mp-5831,-1.648620547,Cu(SbO3)2
mp-614325,-0.987538159,Re2Pt(CO)12
mp-604702,-0.41073209,H10PtC(N4O)2
mp-1193463,-2.022949622,Mn4SiTeBr2O7
mp-20167,-2.257081196,V2FeO4
mp-556077,-1.944551478,ZnCr6Si2Pb10(O16F)2
mp-578931,-1.050633525,Cu2SeO4
mp-720263,-1.237885321,CuH4SeO5
mp-1193278,-2.587411356,La3NiW(SO2)3
mp-557341,-1.853546041,TmMn4(CuO4)3
mp-15336,-2.537271544,Sc2Cu2O5
mp-561743,-2.551555133,Li2CoSiO4
mp-1179552,-1.878626521,SrV12O30
mp-19317,-1.442891579,Yb(FeO2)2
mp-1201421,-2.424363026,Gd2Nb2S7O30