material_id,formation_energy_per_atom,pretty_formula
mp-17598,-1.287249704,Cu2Te3O8
mp-18956,-2.703167081,SmCrO4
mp-1105199,-2.658703297,RbLaMnWO6
mp-1105293,-1.524748938,GaAgO2
mp-560261,-2.714066442,TaBiO4
mp-1202241,-2.949009021,La2RuO5
mp-1214073,-1.521071016,Cs2MnH12(SeO7)2
mp-19071,-2.14912053,Co2SiO4
mp-698313,-1.586805909,Rb2CuH4(C2O5)2
mp-555717,-2.480451681,K2Nd2IrO7
mp-559519,-2.319244276,Na4TiAs2O9
mp-8922,-1.858698855,Cd(SbO3)2
mp-540679,-0.405533194,Ti4Ni2O
mp-19133,-3.19873776,YVO4
mp-1192864,-1.997377159,MnTlOF4
mp-17167,-2.55800087,Be3Cd4Si3TeO12
mp-1203094,-1.693415963,MgZn2P2(H6O5)4
mp-1191811,-1.988598585,BaZnTe2O7
mp-1204820,-0.722874941,Y(NO4)3
mp-561205,-1.660571126,AgC4OF9
mp-10390,-3.33794715,Ta2O5
mp-1194585,-2.279337897,AgP(OF)2
mp-14118,-2.685830285,Sc2(MoO4)3
mp-556514,-1.764385123,Ni5Sn(BO5)2
mp-1077929,-3.050680285,La2CuO4
mp-15904,-3.209291358,BaGd2ZnO5
mp-559120,-1.218008887,NiP2H24(C2O7)2
mp-8084,-2.985389053,NaNb6O15F
mp-1181499,-0.507730322,CuO2
mp-22246,-3.557862607,EuTiO3
mp-18997,-2.644361418,LiMnPO4
mp-556238,-1.475669263,CuC3(OF)3
mp-744919,-0.307298725,Mn3Mo2H34C22N16O5
mp-1194904,-1.084260627,CuHg(SeO3)2
mp-556281,-2.975217107,Sc(PO3)3
mp-6662,-2.463745125,NaSr3IrO6
mp-1095155,-2.048451164,Sr2NiIrO6
mp-554684,-2.622964187,K2SrV3O9
mp-1195628,-2.608640899,CsK2Mn3P4ClO14
mp-1201132,-2.730535222,SrMn3(PO4)3
mp-7889,-2.997400996,Sr2YReO6
mp-1190968,-3.842791102,Y3TaO7
mp-1078741,-2.121046388,Ba2CuOsO6
mp-556202,-0.809675469,Cu(CO)4
mp-654139,-3.665325044,Nd2Ti4O11
mp-4609,-3.666053018,HfSiO4
mp-1192074,-0.715099321,CuC3N2O5
mp-555091,-1.490542716,Rb2Na2IrO4
mp-3255,-1.690660648,SrCu2O3
mp-704992,-1.452804868,RbCoO2
mp-558335,-1.141006094,Na2Pd(NO2)4
mp-1186277,-3.339525451,Nd3FeO6
mp-1078283,-2.268840888,Ce2Fe2Se2O3
mp-1106008,-1.754587395,SmFe4(CuO4)3
mp-8086,-1.716734844,Na2Zn2O3
mp-19148,-1.774585794,K2Mn2O3
mp-555534,-2.218500414,K4MnMo4O15
mp-19210,-1.097159209,CoPtO2
mp-542054,-1.638219719,Hg9(PO4)4
mp-1079461,-0.211315267,Ag2IOF
mp-18436,-2.701013928,RbVP2O7
mp-555937,-2.038940352,Ca3Cu3(AsO4)4
mp-558810,-3.125701355,Ca2TaMnO6
mp-549058,-2.343073248,Ba2Fe2Se2OF2
mp-545730,0.158138931,AgCNO
mp-561861,-2.242243525,KMg2V3(CuO6)2
mp-1202181,-2.451519298,Li2V2P2O11
mp-1191382,-2.259697023,Sr3CoRuO6
mp-8429,-1.542370811,K4IrO4
mp-14526,-2.695813519,Na4Hf2(GeO4)3
mp-560035,-1.929901428,Tl4Ni7(PO4)6
mp-542944,-1.667915722,Cs2CuH12(SO7)2
mp-540842,-3.182745006,U2CoO6
mp-21545,-2.182972895,YbFeGe2O7
mp-24273,-1.009344875,CdH20C4S4(NO6)2
mp-542903,-2.859502434,ZrPbO3
mp-541018,-2.555894667,MnP4O11
mp-24347,-1.744414859,Be2CoH20N2(O3F4)2
mp-17461,-2.852892256,NaTiP2O7
mp-510475,-2.593244968,Y2Cu2O5
mp-767613,-2.602569504,RbVBP2HO9
mp-646599,-2.274358663,KCo4(PO4)3
mp-23543,-0.60261476,Hg5(BrO2)2
mp-572790,-2.559350497,Cs2Mn(PO3)4
mp-560340,-2.581454677,La2Pd2O5
mp-542084,-2.399943339,MnP4O11
mp-16552,-2.387831206,MnAg(PO3)3
mp-1205279,-1.283165015,K3Fe(C2O5)3
mp-556243,-2.819084884,CaV2(PO5)2
mp-608469,-0.840198567,Co(CO)4
mp-550579,-2.775738153,ScTa(PbO3)2
mp-561141,-3.132566093,KYP2O7
mp-1197871,-2.280575276,Na2FeNi2(PO4)3
mp-17445,-2.220288072,RbBaMnO4
mp-680689,-3.298387777,SrTi2O5
mp-1192091,-2.103824345,Cd3(BO3)2
mp-16185,-2.513962567,Mn6AgP7O24
mp-19036,-3.183192336,Tm2V2O7
mp-555495,-2.844725534,K3Y(BO3)2
mp-8153,-2.12155424,NaHgPO4
mp-24025,-0.201056054,NiH12(N3O2)2
mp-605503,-2.334957705,CrP3(HO5)2
mp-20141,-2.012251863,Mn3O4
mp-24410,-1.085364287,CoH4(BrO)2
mp-19445,-3.166007821,LiLa4NiO8
mp-703515,-2.295918489,CaCuSiH2O5
mp-18190,-1.85248295,CaCu3(SnO3)4
mp-19243,-1.914366438,VSb2O5
mp-12516,-1.830085682,NdZnSbO
mp-20940,-2.651919442,TiCdO3
mp-1197393,-0.339420346,FeI(NO)2
mp-643743,-1.034441835,CuHClO
mp-557046,-2.543045036,K3V(PO4)2
mp-973926,-1.359303675,KCoH3(CO2)3
mp-723483,-1.373466453,Sr2Zn(HO)6
mp-557144,-1.93941507,Rb2Cr2O7
mp-572292,-2.369006408,FeCoPO4F
mp-1205375,-2.978952667,LaMnO3
mp-766274,-1.057746461,Cu2H3NO6
mp-3258,-2.391872912,Ca3Ru2O7
mp-24488,-1.771823822,NaZn2H3(SO4)2
mp-1188722,-1.389349552,Fe2Te4ClO12
mp-31415,-3.836145279,La3TaO7
mp-650538,-0.657251956,W2C7Br4O7
mp-29282,-2.091401514,P2PtO7
mp-12642,-3.502344185,Ba2TmNbO6
mp-1196811,-1.879707958,Na5V3O12
mp-1078956,2.104494145,PtN4Cl2O
mp-561311,-2.558610653,K2P2WO9
mp-1105112,-1.22135702,CoSn2(OF)6
mp-1198280,-0.355375249,Li2H32Pt(C6O)2
mp-541067,-0.669462081,HgNO2
mp-21216,-2.627573065,AlFeO3
mp-23611,-2.7941996,BaTa2Bi2O9
mp-23558,-0.928962427,Ag2BiO3
mp-556635,-1.354025857,CuBi2(SeO3)4
mp-27151,-2.475577414,V7O13
mp-23445,-1.564005037,Bi2Ru2O7
mp-1189428,-1.564177113,Cs2IrCl5O
mp-7127,-3.293124648,Ba2YbTaO6
mp-1190117,-2.130462675,Yb2CuTe2(SO7)2
mp-704550,-0.746930331,Mn2SnC9BrO9
mp-1197472,-1.871082359,NaCd4(GeO3)5
mp-1202597,-1.584509881,Na3Fe(SO5)3
mp-1288517,-1.89376143,LaFeAsO
mp-1199734,-1.027883327,CuH36S8N11O18
mp-1195856,-0.515656178,FeSO8
mp-645301,-2.378149176,K2CoP2WO10
mp-21541,-2.871730799,CaV2P2O9
mp-1204710,-2.657554237,MnAl2(SiO5)2
mp-19127,-2.622288796,Sr2FeMoO6
mp-19274,-2.693046479,BaPrMn2O6
mp-17448,-2.389354136,Ba3CaIr2O9
mp-19785,-2.961879448,HoFeO3
mp-560855,-2.759965158,SrCrSn(PO4)3
mp-561135,-2.4915828,Fe3B7IO13
mp-19242,-2.408142913,YNiO3
mp-1195380,-2.386280967,U3W2O17F2
mp-1840,-3.491774188,TiO2
mp-650954,-2.188006968,LaFe5(GeO5)3
mp-1289745,-2.590962666,Ba2FeMoO6
mp-1200820,-1.114132325,K6Na2Pt(WO6)6
mp-555084,-2.729745193,GdWClO4
mp-1198079,-2.355021815,VP3(Pb2O7)2
mp-19903,-2.0703299,V2Pb3O8
mp-28917,-3.375354117,Ba2Ti13O22
mp-555116,-1.837639778,K2NaMnO4
mp-19367,-2.908078574,NaCr(SiO3)2
mp-28402,-1.575660925,Zn(Bi3O5)4
mp-505685,-2.069955763,Nb2Te4O13
mp-1194892,-2.475945731,SiP4PdPbO14
mp-647812,-0.877692468,Cr(CO)6
mp-943462,-1.893576237,LiFeHSO5
mp-559573,-1.978257291,UAgIO6
mp-505235,-2.295977226,CoP2PbO7
mp-1078671,-3.029995415,Sr2CaWO6
mp-697984,-1.872311098,K2MnH4(SO5)2
mp-555827,-2.049646923,Sr2Cu(BiO3)2
mp-29876,-2.628654836,MnNb3O6
mp-541513,-3.365114914,NaGdTiO4
mp-551760,-1.0388545,CoSnC4Cl3O4
mp-1201939,-1.394087998,K3IrC4Cl2O9
mp-16056,-2.510522991,Ho2Cu(GeO3)4
mp-19187,-2.752630134,Na2ZrCo(P2O7)2
mp-12046,-1.716384071,Rb3Na(RuO4)2
mp-28915,-1.556374574,Mn3Se3O10
mp-20406,-3.268886799,Lu2V2O7
mp-605856,-1.641131564,Fe2(TeO3)3
mp-1079055,-1.880828131,LaCrAsO
mp-1197383,-1.489204086,Cu5(PO6)2
mp-638553,-2.184171889,Ba2InIrO6
mp-19391,-2.351753678,NaVO2
mp-557587,-3.639017097,Nd4Ti9O24
mp-19443,-2.17466446,WO3
mp-1201200,-1.203407993,MnH20C2S2(NO2)6
mp-867518,-0.628149304,CrH18C5(NO)4
mp-559756,-3.890632177,PrScO3
mp-22391,-2.976909912,Sr3V2O7
mp-1213486,-1.461365372,Fe2H2Se3O10
mp-22271,-1.383234705,Cu(AsO2)2
mp-1200380,-0.803023755,MnHC4N3O5
mp-862301,-2.50963021,Ba2ScFeAsO3
mp-15282,-1.991663714,RbMn4(AsO4)3
mp-1201977,-1.3408999,FePO6
mp-556709,-3.090912228,Na2ZrSiO5
mp-546226,-2.233286954,Ca2CuO3
mp-18741,-2.101385264,RbLiCrO4
mp-556877,-2.326053467,Ba7Ru4Br2O15
mp-1194963,-2.007880505,Tl2P4Pd3O14
mp-1201385,-1.945026065,Ba3Fe26O41
mp-20964,-2.535566054,La2NiIrO6
mp-636519,-1.008345837,Ni(RhO2)2
mp-550950,-2.698552801,LuCoO3
mp-1204299,-2.31610212,Na2GdMnAs2O9
mp-558858,-2.699049169,BaTbMn2O6
mp-18977,-3.030717535,Ba2CaWO6
mp-18479,-3.183269028,Nd2WO6
mp-1180329,-2.831076474,Na2ZrSi3O10
mp-1078646,-1.320602262,K2Cu(Cl2O)2
mp-699686,-0.904779296,Sr51W12N56O3
mp-14556,-2.899864181,SmCd(BO2)5
mp-1191682,0.044853222,Co(N3O4)3
mp-1190874,-1.675820014,FeBi2PO8