material_id,formation_energy_per_atom,pretty_formula
mp-19970,-1.787944932,Li3CuO3
mp-1199733,0.744768393,IrCSN6(ClO4)2
mp-1188600,-1.72060259,UCuO6
mp-644514,-1.803834868,MnO2
mp-32686,-1.161327977,CoO2
mp-22495,-2.386937734,SmNiO3
mp-560016,-2.916245998,NaNb2PO8
mp-1193924,-0.82892894,ZnSO5
mp-510629,-1.624158742,K2Co3H6S3O16
mp-614981,-2.218857704,Ba2Nd(CuO2)3
mp-1202233,-2.603822376,Fe2P3(O3F)3
mp-5449,-3.327381034,Na2Ti6O13
mp-16887,-2.265334714,Ba2CoO4
mp-1198622,-3.204798488,Li7La3Hf2O12
mp-650510,0.153134146,AgC3N3O
mp-18551,-2.32336465,Cr3BO6
mp-1192062,-0.650370728,CdIO
mp-541872,-1.180521863,Cs2Co(NO3)4
mp-1191127,-2.271056811,LiCr(WO4)2
mp-19054,-2.810050006,BaMnCO3F2
mp-555135,-2.571611233,Nd4Ni3O10
mp-1205208,-1.307709895,Al2Cr4O19
mp-1197812,-0.993902182,KHgH2I3O
mp-559264,-1.335076491,Bi2PdO4
mp-505177,-2.559590907,TiIn2O5
mp-646182,-2.605310544,Mg5V2(MoO8)2
mp-581156,-3.208147872,Cs7U8V2ClO32
mp-1193671,-2.53858675,NaCd2(SiO3)3
mp-720439,-0.818674087,H4Ru3C9N2O9
mp-6583,-2.071862668,Ba2Er(CuO2)4
mp-642157,-1.569317103,V2Cu3Pb(ClO4)2
mp-1191916,-1.103737372,Ag5PSeO4
mp-1195322,-1.891236879,Rb2Pd(S4O13)2
mp-6268,-3.061475332,KTiPO5
mp-651461,-0.674099355,Co8C24(SO7)3
mp-774868,-2.483833825,ZnP4O11
mp-1197613,-1.893831508,Ga(W3O10)4
mp-1196749,-2.077036366,CrSiH8(O2F3)2
mp-562912,-1.49489836,Co6Te3(ClO6)2
mp-704731,-1.44921149,KMnO4
mp-1190486,-3.217099653,Sr3LiTaO6
mp-1193750,-2.768136549,NaMn2(SiO3)3
mp-510657,-1.321928923,VCu3O4
mp-1336,-0.799161191,PdO
mp-704417,-3.202496836,Rb7U8V2ClO32
mp-562300,-2.142902849,Co3BPO7
mp-541728,-1.460822917,Si2Ag6O7
mp-540900,-2.221048779,B2PdO4
mp-557955,-3.270594594,Ca3Al4ZnO10
mp-548691,-2.566654191,Sr2ZnReO6
mp-554329,-1.813636017,RbVH6SO9
mp-1201552,-1.462172989,Ga2Cu(SeO3)4
mp-1204294,-1.517876923,ZrMo2O11
mp-1181338,-0.885667599,FePb2Cl3O5
mp-554564,-1.152712662,Ta2Bi4Br7O2
mp-9178,-1.342321699,CdSe2O5
mp-542688,-0.583448983,LaH6Au3C6(N2O)3
mp-550622,-2.1911937,V2CdO6
mp-578604,-2.274333691,NaCrO2
mp-558651,-2.469725875,Ba2Mn(AsO4)2
mp-20841,-2.547150007,Ba2CaIrO6
mp-561778,-2.107463442,CsLiCrO4
mp-542392,-2.391746829,EuMn2O5
mp-623098,-2.408864613,Ca2FeWO6
mp-743651,-1.299653072,MnP2H4O5
mp-557203,-3.616695558,SrZrO3
mp-15051,-1.955849706,Nd(PdO2)2
mp-14116,-0.975297961,CuRhO2
mp-1200404,-2.65459919,Y(BO2)6
mp-18381,-1.466385633,SrCo6O11
mp-1020598,-3.284636588,Y4Si2S3O7
mp-1104363,-2.708429424,K3ScV2O8
mp-22781,-2.095810287,Mn2GeO4
mp-27013,-2.713416752,Li9V3P8O29
mp-651814,-2.382381744,CsV3O8
mp-18767,-2.147342672,LiMnO2
mp-680202,-1.213209486,Ag2SnO3
mp-1105395,-2.899547299,Ca2ScOsO6
mp-16002,-3.417639741,U2Ta6O19
mp-551816,-2.275079949,YBi2IO4
mp-23136,-2.150724634,KBi(WO4)2
mp-615682,-2.786472665,Ba2LaTa(CuO4)2
mp-1095378,-1.177074544,AsAuO4
mp-13199,-1.708840728,Zn3TeO6
mp-23969,-1.393361673,ZnH2SeO5
mp-555286,-2.859460621,CsNb(PO4)2
mp-8989,-2.35268035,Na2P2PdO7
mp-28162,-2.048641176,V2NiO6
mp-560293,-3.649160043,LiLa5Ti8O24
mp-698298,-0.259028268,NiH14C10(N4O)2
mp-542871,-2.55964746,RbP2WO8
mp-1198608,-1.701671697,V2ZnP3NO15
mp-19435,-1.701434978,CoMoO4
mp-1205381,-1.442715488,Cs4FeO3
mp-19261,-2.375651701,Na3MnPCO7
mp-22614,-1.908346309,NaFe(GeO3)2
mp-557370,-1.114537629,Gd3Fe5O12
mp-29297,-1.441821941,Cd3(ClO)2
mp-613402,-1.154184838,SrZrO3
mp-18932,-2.635864888,LiPr(WO4)2
mp-1199318,-0.809634901,Co2SnC8SeO8
mp-557123,-2.707969655,Na2CuSi3O8
mp-1198645,-2.375741139,VZnP2PbO9
mp-1189335,-2.030687959,YO3
mp-19001,-2.50861921,SrMnO3
mp-558331,-1.728726113,Ca5W(N2O)2
mp-1194603,-1.81537871,MnBiO3
mp-1188474,-1.727867007,MnIn2NiO6
mp-13603,-2.662910118,CdB4O7
mp-634466,-1.050484742,HgH12(ClO7)2
mp-541917,-1.792081926,Na2Te4WO12
mp-4320,-1.238488291,CuTeO3
mp-4860,-3.067847461,Gd2CuO4
mp-22137,-2.661912068,DyCoO3
mp-1197155,-2.115474328,Mn4P3NO12
mp-721058,-1.524097098,CoPH3O4
mp-558350,-1.381786082,Zn2TeBr2O3
mp-27559,-1.48163812,Na14Cd2O9
mp-504732,-0.41935205,Ti3Mn3O
mp-648519,-1.960820871,ThMn4(CuO4)3
mp-540740,-2.987468219,SrTb2Fe2O7
mp-744637,-2.80454164,Ba2V3P6HO22
mp-1189408,-3.621298545,Sr2HoTaO6
mp-572430,-2.118952155,BaCr2O7
mp-18913,-2.639195984,Ba3Cr2O8
mp-1192520,-2.52357055,CaAlCuSi2O9
mp-1195965,-0.177113174,AuCl4O3
mp-18331,-3.18525707,GdCrO3
mp-1197743,-2.190019254,TbV(SeO4)2
mp-1196797,-0.75780599,AgAsS16N16(O4F3)2
mp-704851,-2.019360775,Fe2(MoO4)3
mp-20528,-1.094331341,KCoO2
mp-554160,-2.416813993,K2CuP2O7
mp-558147,-1.696337077,TlVH6SO9
mp-648394,-0.685490085,CrCo3C16NO14
mp-21389,-2.54844046,Eu3AuO6
mp-504457,-3.515838961,BaTi6O13
mp-699457,-1.843480349,Na2ZnGe2(HO2)4
mp-558558,-2.922556605,Ca3WCl2O5
mp-3952,-3.665416884,BaY2O4
mp-557963,-2.265733763,Cr4Si2Br2O7
mp-555641,-1.385067019,Nb2Te4Cl10O
mp-10254,-2.340707545,Sr2IrO4
mp-1103886,-1.875157864,KFe2(MoO5)2
mp-6790,-2.061095996,Ba2Y(CuO2)4
mp-1198043,-3.58384479,SrSc4Si5O17
mp-555418,-1.848684108,Rb3NbH4(C2O5)3
mp-616232,-1.622432389,TlCr4BiO14
mp-645942,-2.581354762,Rb6U2W4O21
mp-559662,-2.508531564,V2P2O9
mp-31514,-3.04629383,Ba3Nb2CoO9
mp-735514,-0.84750003,MnH18C4N8(ClO)4
mp-1189569,-2.031989325,Zn2PO5
mp-705042,-0.69334276,Co3C10O9
mp-1203724,-2.080859656,Na3LaMn3(AsO5)3
mp-557447,-2.488814932,Ba2Eu3Mn2(CuO6)2
mp-559549,-3.115358239,K2LaNb5O15
mp-1182065,-1.24860505,CdH8(NO5)2
mp-7074,-3.330328274,NaSc(SiO3)2
mp-16538,-3.199438652,Ba5Gd8Zn4O21
mp-699466,-1.203499755,ZnPH7C2N4O5
mp-15397,-3.39967562,Ti7Al2O15
mp-505404,-1.693118845,Mn2Cu3H24(OF)12
mp-1195567,-2.399719672,Sc2(TeO3)3
mp-770948,-2.263133664,Na3CoPCO7
mp-3611,-4.024252817,Dy2Hf2O7
mp-3638,-2.038713495,Cu2P2O7
mp-559929,-3.162845741,Ba3Ta6Si4O23
mp-554775,-2.081950629,CaCuO2
mp-1204213,-2.391493983,Tb2Nb2S7O30
mp-680381,-3.216463659,K2Na2Gd4Nb2O13
mp-557516,-2.820740206,K2Be2Zn2Si3O11
mp-631621,-1.893597893,VBi(PbO3)2
mp-1204086,-2.07452388,KV2(PO5)3
mp-5511,-1.578112031,Cu6Mo5O18
mp-690848,-0.365467646,CdH20C2S2(NO2)6
mp-1196178,-1.80030825,TiH9(SO6)2
mp-1203944,-0.481075573,Hg2ClO6
mp-14377,-2.747174882,KTaGeO5
mp-19188,-2.438888143,Ba3Mn2O8
mp-1192129,-2.13584725,Tl3V5O14
mp-1105271,-1.820986284,MnBiO3
mp-18863,-2.741110241,PrCrO4
mp-556605,-3.802288683,ZrO2
mp-652326,-0.653684562,Fe3C9S2O9
mp-24407,-1.70476225,CdP2H6O7
mp-556902,-2.506950122,KLi4NbO5
mp-1205311,-2.272137894,Sr2NiTeO6
mp-542168,-2.342165644,Cs2CoSiO4
mp-1198847,-1.199013583,CoH24C2S2(N3O7)2
mp-542479,-3.066285751,DyMnO3
mp-18817,-1.092221604,NiSeO4
mp-1079978,-2.996333556,LaNb2O7
mp-1199184,-2.907092264,Ba3Ti2(O3F5)2
mp-706605,-1.628837411,K4ZrH10C8O21
mp-23801,-1.549496631,K2H2IrCl5O
mp-1205160,-2.52828601,Rb9Fe7(PO4)10
mp-12725,-2.159038973,NbAgO3
mp-680380,-3.495894852,Ca2Ta2O7
mp-562501,-2.484584206,SiP3RuO11
mp-1198275,-2.302945266,PrV2IO9
mp-1189158,-1.309926717,Rb3Ru2N(Cl4O)2
mp-540645,-0.803819085,Hg3(ClO)2
mp-1199397,-1.815071985,NiSb2H12(O3F4)2
mp-19201,-2.513474609,CaMnO3
mp-1078758,-2.114368121,Sr2NiRuO6
mp-556733,-1.98077612,Ba2Ca3Tl2(CuO3)4
mp-1194862,-2.442177858,Sr2Zn3Te2(PO7)2
mp-541412,-3.152574741,CsYP2O7
mp-1201335,-2.743962381,LaNb2CuBrO7
mp-1196303,-0.798355905,Cr2FeNO8
mp-19501,-2.610497806,Ba6Na2V2Ru2O17
mp-1203993,-2.984784599,K2Na2Eu4Ta2O13
mp-557931,-2.992576063,CsVOF3
mp-27169,-3.305677157,KTa5O13
mp-1197453,-1.087195659,Cu3P4C4(NO6)2
mp-23578,-2.387311311,Co3B7ClO13
mp-619461,-2.173481689,WO3
mp-21470,-2.728576851,Ca2MnGaO5
mp-560368,-2.115703059,Na6Cu9(PO4)8
mp-1078295,-2.856714312,NaNbO3
mp-1189905,0.818888856,CuN2(Cl2O)2
mp-11018,-0.952363752,TlCd(NO2)3
mp-1102516,-0.736667244,KHgBr3O
mp-1197699,-0.253877302,Pt2Cl8O7
mp-555821,-1.867416163,Na4Cu(AsO4)2
mp-977334,-3.222828989,LiTi2O4
mp-14030,-3.200668403,Na2LiY(Si2O5)3
mp-510070,-2.270425085,Sr3NiRhO6
mp-1196758,-2.56855202,KCd(BO2)3
mp-604490,-1.850544466,UNiH14O9F4
mp-555517,-1.61667924,ErCu3Se2ClO8
mp-556603,-1.879636693,FeWClO4
mp-6623,-2.121633152,Rb2Cd2(SO4)3
mp-1204088,-1.805987903,Ti(PO5)2
mp-9173,-3.452720418,TiO2
mp-647862,-2.045453727,Cr2(MoO4)3
mp-1198514,-1.649486864,NaV5H18N2O19
mp-559685,-1.799487609,V2Cd4(TeO5)3
mp-545348,-2.517244998,MgVO3
mp-560788,-0.730373972,V2NiH24(N4O5)2
mp-542151,-1.791754194,V2Ni3O8
mp-1190906,-0.422418764,Zn(NO4)2
mp-542029,-0.895983684,Ti3Al2NiO
mp-558221,-2.417524172,Ba2V4Cd3O15
mp-18861,-2.964339059,BaNd2Mn2O7
mp-1198068,-1.20500811,Cu2As(HO3)2
mp-744024,-1.857888667,K2MnH8(SO6)2
mp-648633,-0.64135592,Fe3C10SO10
mp-3792,-3.730018806,YAlO3
mp-1102170,-1.964058439,CrO2
mp-555198,-2.103018977,NaV6O11
mp-560322,-1.326929721,K2RuN3Cl3O5
mp-984755,-2.535862143,Nb4Ag2O11
mp-605347,-1.247890764,HgTe(H2O3)2
mp-696650,-0.949297987,KH2Au(Cl2O)2
mp-18160,-2.571077298,Cs2SrV4O12
mp-643409,-2.39014195,Ba4Y(CuO3)3
mp-761916,-1.005121429,NaH4Au(Br2O)2
mp-8975,-1.252784174,Hg3(AsO4)2
mp-24182,-1.494240638,Rb2ZnH12(SeO7)2
mp-1200902,-2.312432536,Sr2(FeO2)3
mp-504863,-1.766878133,KNa2FeO3
mp-1180538,-1.785605097,LiCdMoO5
mp-1199708,-0.609627186,TbAgH10C20(N3O4)2
mp-746690,-1.709241819,FeP3(H2O3)3
mp-18762,-1.42358336,Na4CoO3
mp-555398,-2.684305305,K2MgP2WO10
mp-1199313,-2.227931479,RbCu3P3(O4F3)2
mp-20028,-2.161100451,FeBPbO4
mp-1104887,-1.844656969,NaFe2(MoO5)2
mp-549490,-2.62046713,KNb4O5F
mp-505808,-3.117047283,BaEr2CuO5
mp-743619,-0.784089924,CoH6C2S2N2O3
mp-622183,-2.029809871,Co2PClO4
mp-510367,-2.453097926,Fe2P2O7
mp-556729,-3.528427708,Ba6Ti17O40
mp-554430,-1.002205822,NaCu(IO3)3
mp-1063607,-1.697485531,CrPdO2
mp-765297,-1.891814982,Mn2AsHO5
mp-1196456,-2.875896647,Sr2V(PO4)3
mp-1194640,-1.991057725,Mn3V3(AgO6)2
mp-1194730,-2.533860485,RbZr2(AsO4)3
mp-1196389,-2.93201617,Ti4Fe(PO4)6
mp-19203,-2.704977627,BaCo2Si2O7
mp-541777,-2.124060482,SrMnV2(AgO4)2
mp-1197408,-0.767824725,FeH12C6N(ClO2)2
mp-18162,-1.238314519,Li(CuO)2
mp-17888,-3.884593978,K2Zr3OF12
mp-1198341,-2.704744628,Na4Zr(SiO3)6
mp-653811,-2.045819543,Sr2NdCu3(PbO4)2
mp-22243,-1.770611568,LiNiAsO4
mp-7470,-1.193997333,RbCuO
mp-504601,-1.537916819,Cs2ZnO2
mp-4690,-1.763296967,K3TaO8
mp-554998,-1.473390573,LiV(IO4)2
mp-20813,-2.648547342,Ba2MnReO6
mp-703836,-1.762946387,K4ZnH6(S2O9)2
mp-559692,-2.797454247,Ta2Cd(P2O7)3
mp-14469,-2.397845765,KHg(PO3)3
mp-559970,-2.595521497,Cr3(P2O7)2
mp-1204064,-1.661385421,Cu3Ag5(PO4)4
mp-541007,-3.303111637,BaDy2MnO5
mp-765091,-1.499583048,VCu2HO5
mp-1239063,-0.871106808,MnSeO5
mp-1191155,-2.819105805,TiP2PbO8
mp-1070912,-1.559203024,CsV2S2O
mp-644303,-2.48425774,UW3O11
mp-542157,-2.177723713,FeCoPO5
mp-31063,-2.197750126,NdNiO2
mp-760342,-2.03192578,KLiH2WO5
mp-504583,-2.075281449,FeCoBO4
mp-19323,-3.197158501,SmVO4
mp-1192587,-0.978547539,Mn3NiO10
mp-546285,-1.181007384,NbI3O
mp-19363,-1.606077817,HgMoO4
mp-1595,-3.037592559,Nb2O5
mp-560904,-1.462993028,CdHg2SO6
mp-1199954,-2.624354921,Mn(BO2)2
mp-29027,-1.498270047,TaI2O
mp-744930,-1.444676328,FeH6SO6
mp-555526,-1.143692167,RbAg(NO3)2
mp-638686,-0.766700504,AgNO3
mp-559776,-2.969402486,Li5La3Ta2O12
mp-1192775,-1.697892998,FeSO5
mp-18966,-1.340005679,FeAgO2
mp-1105634,-1.001899122,Ni5(AsO6)2
mp-1195934,-1.554462859,Na2Zn3H4(Se2O7)2
mp-1191071,-0.911390234,NbH12N3O8
mp-1078743,-1.441911057,Rb2Mn(Cl2O)2
mp-559054,-1.384073574,NiH12SO10
mp-1204055,-1.71980157,P4H4PtIO10
mp-558828,-2.889858145,K3Nb3(BO6)2
mp-6521,-3.46054363,LiLaTiO4
mp-12323,-2.655057687,NaSm2IrO6
mp-1199729,-2.061778372,LiMn2O4
mp-780739,-2.243236719,Ca2FeP2(H2O3)4
mp-18308,-2.715772424,CaZn2(PO4)2
mp-27690,-3.534821398,Sr3Zr2O7
mp-1104157,-0.835855698,Cu2Ag(SeO5)2
mp-1196792,-1.510753525,FePO6
mp-780171,-0.970849405,HgH10N2Cl4O
mp-7204,-2.219875891,CaZnSO
mp-1195787,-2.90373344,Ti2VHO6
mp-559299,-2.492174062,VPO5
mp-558306,-1.812420172,RbCrClO3
mp-1190625,-3.347908326,Li2Ti6O13
mp-17689,-2.148963733,Ba4Ir3O10
mp-1105243,-2.018515669,Mn3ReO6
mp-565929,-3.279030662,K2EuTa5O15
mp-504927,-1.364364662,CrCuO4
mp-19387,-1.990506863,CdWO4
mp-559851,-2.00565571,CrBiO3
mp-558012,-2.750013327,Ba2Cu(PO3)6
mp-19055,-2.714862999,HoCrO4
mp-561705,-1.18969005,ZnCoTeBr2O3
mp-19483,-2.545806355,TmFeGe2O7
mp-774905,-1.621799073,Li3CrH12(CO3)6
mp-22584,-2.033860685,LiMn2O4
mp-20156,-2.661605562,NaNdMnWO6
mp-6310,-3.30403568,Ba3Y(BO3)3
mp-707953,-1.39365244,ZnP2H11C2NO8
mp-19179,-3.218959256,Ba2V(SiO4)2
mp-768516,-2.406112028,Ti2(SO4)3
mp-699555,-0.838276562,Cr2C13SN3(O2F)5
mp-1180691,-1.602714861,KVO4
mp-540763,-2.688257499,TiMn2O4
mp-1204600,-2.066927492,K3Ti4Ge3O20
mp-19115,-2.334468615,CaFeO3
mp-743546,-1.391282693,MnP3H10C3NO9
mp-558650,-2.485651849,UCu2(PO5)2
mp-752822,-1.694874187,RbCrH4(C2O5)2
mp-6430,-3.03347763,Ba2YReO6
mp-1009020,-0.371063815,KCuO
mp-561222,-0.979437798,K2HgBr2(NO6)2
mp-1202721,-0.516243287,AgH6C2N5O4
mp-554622,-2.229484981,Rb3P(W3O10)4
mp-28948,-2.47736531,Cs2V4O9
mp-19379,-1.901503682,CoSO4
mp-21868,-2.255681314,Ba2Lu(CuO2)3
mp-707891,-1.583023673,Zn2P2HNO8
mp-1204457,-0.443259601,Ni3Te(MoO7)6
mp-554597,-3.273287338,La2WO6
mp-11206,-3.123901162,LiTi(SiO3)2
mp-546295,-2.158301139,Sr2CuOsO6
mp-757140,-1.789915671,K3MnCrO8
mp-622901,-0.655191228,Co6C13(SO6)2
mp-624117,-2.211453663,Cs3V4Te2ClO14
mp-14824,-2.075730765,Sr2HoCu3(PbO4)2
mp-13869,-1.705161609,Cr5O12
mp-680154,-2.349327928,Rb2Ti(GeO3)3
mp-510252,-1.783528445,Fe3O4
mp-680680,-2.294381744,Sr4Ru3O10
mp-1190990,-0.65977552,Cu2ClO3
mp-1195983,-1.751973446,K2ZnCr2(H2O5)2
mp-558004,-3.073933746,BaCaVP2O9
mp-18311,-2.264528975,BaTeW2O9
mp-1197101,-1.764710555,VP(HO)9
mp-1191022,-2.603607458,CsY(MoO4)2
mp-1078132,-2.539116391,La2Fe(SeO)2
mp-22806,-2.470972895,Fe2P4PbO14
mp-18799,-2.655652136,YbVO4
mp-1197450,-0.634664506,V3C4NO7
mp-1181366,-1.558750902,Fe3(PO6)2
mp-19137,-1.776860196,K2Mn(SeO3)2
mp-1200426,-2.657778569,Sr2Fe2P3(O6F)2
mp-19175,-1.501698143,MnSe2O5
mp-583429,-0.230676975,CuH8C6(N3O)2
mp-555747,-3.347875041,Lu2WO6
mp-19348,-2.995115598,Al4Co(BO5)2
mp-1202160,-1.491037578,CoPH6NO5
mp-1190181,-2.648031995,Sr3Zn3Te(PO7)2
mp-5029,-2.619735828,Ho2Cu2O5
mp-554559,-0.774792606,NiH32C8S4(NO5)2
mp-629560,-0.586236781,Fe3C9Se2O9
mp-19014,-2.624980779,Sr2CdWO6
mp-24609,-2.395075604,RbMnP3HO10
mp-15526,-2.776964829,SrVZnP2O9
mp-974307,-1.972970118,NdCuTeO
mp-540950,-3.415019524,Ba3SrTa2O9
mp-1181262,-1.720487047,MnP4(NO6)2
mp-1192841,-2.219863501,YbWBrO4
mp-24111,-1.714835773,Rb2CoH12(SO7)2
mp-10392,-2.352419183,Sr3CdPtO6
mp-1189973,-1.74475535,TmFe4(CuO4)3
mp-558934,-0.599315222,Hg3ClO
mp-558941,-3.417929344,LiYSiO4
mp-1079680,-2.4844943,CaFeO2
mp-16057,-2.54084745,Er2Cu(GeO3)4
mp-6099,-3.350354493,LiSc(SiO3)2
mp-849751,-1.510271039,CsCoH24(SO10)2
mp-558846,-1.560647158,Cs2As4Pd3O14
mp-559047,-1.16923692,Rb5CeCu2(NO2)12
mp-559012,-2.61242229,Na2MnP2O7
mp-18738,-2.520866199,Nd4Ni3O8
mp-735512,-0.961842846,CrH17N4Cl2O3
mp-554335,-1.422828942,K2CuH12(SeO7)2
mp-1106249,-2.651734973,Ba4Co(ReO6)2
mp-18043,-3.350270438,Sr6YSc(BO3)6
mp-1204879,-2.133925029,Sr4V2(Se2O7)3
mp-541956,-2.552748023,CsTiAsO5
mp-1203515,-1.367072465,Cu3PO7
mp-1201934,-1.163297336,WO4
mp-1198168,-2.160120469,Fe5(BO3)6
mp-31005,-2.364306559,Zn3(PO4)2
mp-1190340,-2.934390333,Ba3TaFe3(SiO7)2
mp-18085,-2.304188146,Fe4Co3(PO4)6
mp-566670,-2.272115905,K3Fe5(PO4)6
mp-6323,-2.612808582,BaYb2CuO5
mp-1191696,-2.196026937,LiCr(MoO4)2
mp-5246,-2.865364587,KNbO3
mp-1202595,-3.037573355,Ca5V3ClO12
mp-1104404,2.017240892,Ni(N4O3)2
mp-558952,-3.055819135,Sr2VClO4
mp-707311,-1.957404992,ZnPH3O5
mp-1272749,-1.163053851,CoO2
mp-28712,-1.589495337,Si2Hg6O7
mp-707484,-0.750620607,CuH2N2O7
mp-542512,-2.726230988,NaPr2RuO6
mp-1195166,-3.208723472,Ta7BiO19
mp-561313,-1.45697206,Si2Ag6O7
mp-505311,-2.325323991,Sr2CrCuSO3
mp-1203248,-0.825419679,TiH24C6I3(N2O)6
mp-1202980,-2.211826832,Zr2Te4Cl2O11
mp-1080538,1.035088998,CuBr4(NO)2
mp-1193774,-1.583758774,MnPCO4
mp-4636,-2.731707059,ScCuO2
mp-634381,-2.146455294,V2Zn2O7
mp-562090,-0.887152536,CuCClO
mp-779906,-3.058726858,Ca3WO6
mp-19108,-2.780565306,Ca2MnWO6
mp-648069,-2.676887805,Ca2GaFeO5
mp-616215,-0.558850358,FeC3SeO3
mp-17715,-3.500134514,SrTa2O6
mp-560255,-1.681077434,NbPCl8O
mp-861957,-3.135192889,KNaSmTaO5
mp-18721,-2.594137015,Mn2P2O7
mp-690667,0.421699913,Ag7NO8
mp-11019,-1.682666823,GaCuO2
mp-1204855,-1.169277698,KY(CO3)4
mp-561267,-2.50596648,KFePO4
mp-1191567,-1.923994949,Na2TiH4O5
mp-18212,-2.480795727,Na2CoP2O7
mp-18912,-1.078794391,Na5NiSO2
mp-555122,-1.225055501,Rb2Pd(NO3)4
mp-14495,-2.042019591,Li6ZnO4
mp-6254,-3.461004728,Ba2TbNbO6
mp-29775,-2.59119683,Sr4PdO6
mp-5625,-1.363241816,Ag2SO4
mp-504840,-2.086238079,K4WO5
mp-1201407,-1.382019499,V4CoH4C4(NO5)2
mp-1195999,-2.545541035,Cs2CdP2O7
mp-651724,-0.730129963,Fe2Te2Ru2(CO)11
mp-572287,-1.753175918,Cs4V2S4O3
mp-863292,-2.538831354,Na3VP2O9
mp-1198211,-1.548702789,Na2NiMo6H26(NO15)2
mp-1199758,-1.174258785,FeH8N3O13
mp-19005,-3.674450607,Y6WO12
mp-17353,-2.47786804,KV6O11
mp-27712,-1.848849092,VCl2O
mp-715566,-1.515729861,CrO3
mp-756297,-1.917370026,ZnIn2O4
mp-746343,-0.685147471,NiH44C12N8(ClO5)2
mp-558048,-2.272884743,NaV(GeO3)2
mp-29183,-2.890784104,LaNb7O12
mp-555860,-3.201291338,EuTiClO3
mp-18396,-2.401056632,RbFeP2O7
mp-16393,-2.748879319,Y4Mo4O11
mp-559713,-2.485863193,Fe3(P2O7)2
mp-15125,-2.959510403,Rb2CdSi5O12
mp-16053,-2.259178816,CuSiO3
mp-1201849,-2.625133883,Nd3Fe5O12
mp-560398,-2.127401318,K2Zn(GeO3)2
mp-1181649,-1.256912329,CuPbSO6
mp-561182,-1.866667576,Ba4Tl2Cu2HgO10
mp-18480,-2.892713759,Na3Ca2TaO6
mp-1198831,-1.956824459,TiP2O9
mp-560869,-2.291730001,K3VO4
mp-1077089,-0.918961407,CdClO
mp-559346,-3.000255675,K3Nb3Si2O13
mp-1192901,-2.350361309,ZnBP2PbO9
mp-561538,-2.416487604,MgVBiO5
mp-757310,-1.079089152,ZnP2H14C2(NO)6
mp-555835,-2.660574846,Gd3Sc2(GaO4)3
mp-20396,-3.116948536,RbCa2Nb3O10
mp-579071,-1.431817423,BaEu2Mn2O7
mp-24112,-1.739945099,Rb2ZnH12(SO7)2
mp-557190,-2.407873619,Mn(PO3)3
mp-554658,-1.644219727,Cu(SbO3)2
mp-743545,-0.763361674,CrP3H18C6(SO)6
mp-867329,-1.273803521,K2ZnH4(I2O7)2
mp-1204177,-2.409849767,Na6Co3B9P6H3O38
mp-1205027,-1.974854927,ZrMn2H12(O3F4)2
mp-1196001,-2.303371541,NdV2IO9
mp-1193940,-2.008579597,SrCo2(AsO4)2
mp-1189706,-1.572511156,CdTcO3
mp-746681,-0.948375294,VH8C2NO3
mp-19153,-2.949918071,Lu2Mn2O7
mp-1070510,-2.940629866,Y2BiO2
mp-557861,-3.19291886,Li2CaTa2O7
mp-29920,-0.861048787,Rb5Au3O2
mp-1204310,-0.671681766,TiH30C10S5(ClO3)2
mp-559163,-1.662895607,KFeAs2O7
mp-600233,-0.744579905,CoH14C3NCl3O2
mp-601242,-1.611850815,K2VH4C4O9
mp-758238,-2.286782181,Na2ZnPHO5
mp-1204019,-0.606480398,NdAgH10C20(N3O4)2
mp-504948,-2.885519258,LiScGeO4
mp-540948,-2.270163461,ZnNi(PO3)4
mp-541327,-2.504893386,Sr2TbGaCu2O7
mp-552488,-2.19995271,LaCuSeO
mp-1197244,-2.126590101,V3Pb5O12F
mp-561414,-1.483710573,K3Hg3S2Br5O6
mp-557716,-2.427300041,NaNi(PO3)3
mp-28996,-0.915084261,Ag4Bi2O5
mp-1199561,-2.663425426,FeSiO3
mp-1095187,-2.581743964,Nb2O3
mp-28231,-3.09372975,Ti2FeO5
mp-1202592,-1.160663984,Fe2P2NO11
mp-1202562,0.49680504,HgN2Cl4O
mp-1193565,-0.449791245,ZnAsNO4
mp-28519,-1.746208721,Fe4As5O13
mp-554745,-2.102209069,CrP2Pb5O13
mp-24036,-2.559049748,Rb2MnH2OF5
mp-1201240,-1.577718547,Rb2CuC2O7
mp-1188582,-1.841195654,K2CoP2(H3O4)2
mp-1193656,-2.251557525,Cs2WO4
mp-1188475,-1.296849911,Cs2FeCl5O
mp-721072,-1.379983474,Cu3As2H2PbO10
mp-7472,-1.143861244,RbAuO2
mp-1077196,-1.005368389,CoO2
mp-29104,-2.988739548,Ti3Zn2O8
mp-1200158,-2.694951476,K2BaNa2Ti4(SiO4)8
mp-20407,-2.880241129,NdFeO3
mp-1204743,-1.494236279,Rb2CdC2Cl2O5
mp-14531,-2.94830597,NaNb3O8
mp-1190199,-1.815323481,CuSb6(SO8)2
mp-1197599,-1.761532143,Ag2Sn(S2O7)3
mp-1204837,-2.934984969,NaFe2(Si2O5)3
mp-545467,-1.589322264,Li3(CuO2)2
mp-504580,-1.802012557,VCuO3
mp-560699,-2.03148177,VBiPbO5
mp-1199011,-2.537512668,Nb4Ag2O11
mp-1191626,-0.68345309,KHgI3O
mp-556030,-2.464023739,BaCuCO3F2
mp-1091397,-1.695907275,SmCoAsO
mp-667372,-2.999544632,Ba8Zr3(SbO6)4
mp-21665,-2.477756207,V2CdP2O9
mp-22042,-2.26189727,LiCo2P3O10
mp-553248,-3.205662069,CsLaNb2O7
mp-6144,-3.425280576,Na2La2Ti3O10
mp-541193,-0.614750975,Hg7Cl2O3
mp-28290,-1.541555391,CdTeO3
mp-17119,-1.85652179,SrCu3(SnO3)4
mp-7041,-2.103676657,CaHgO2
mp-545481,-2.113655385,Ca2Cu(BrO)2
mp-20168,-2.258586496,Cr2FeO4
mp-562267,-0.845245416,Co4Sn(CO)16
mp-8610,-1.920076291,Li8PtO6
mp-24502,-1.830763485,ZnH2(SO4)2
mp-642750,-2.426593827,NaV2O4
mp-554162,-2.617268737,Ca4Mn3O10
mp-545506,-2.034090137,GdZnPO
mp-557786,-3.068339343,CaNb2P2O11