material_id,formation_energy_per_atom,pretty_formula
mp-3721,-3.816070373,SrHfO3
mp-6440,-3.486705473,CaTiSiO5
mp-1196395,-0.724750741,CoH18S2Br(N3O2)2
mp-554873,-2.520199626,Ag2B8O13
mp-654301,-2.870163495,Nb5P7O30
mp-1201666,-1.323084372,V12CoH24C8(NO16)2
mp-562862,-1.671905014,CoBi2SO7
mp-572929,-1.058041107,U2Cu2As3O
mp-1197159,-2.210647973,FeP2O7
mp-762295,-2.17420204,K2Mn3V2(HO5)2
mp-23581,-2.597956536,Cr3B7BrO13
mp-1179070,-1.439615431,V3O10
mp-12287,-3.727430396,La3NbO7
mp-696483,-2.023771715,FeP3H5NO10
mp-19465,-2.843190787,HoCo(BO2)5
mp-1079413,-1.199775625,Zn(OF)2
mp-554685,-3.084138947,Li2U3V2O15
mp-1182074,-2.453675091,Ca2CoO3
mp-23910,-2.036023797,CrHO2
mp-557136,-1.05712143,Cu3Se2(ClO3)2
mp-603406,-0.921506284,CoH21C2N6Cl2O5
mp-6539,-3.048427661,RbTiPO5
mp-1198058,-2.814640929,Ba6Y2Fe4O15
mp-863286,-1.818397511,CoP3NO9
mp-7210,-2.253728866,Cd2B2O5
mp-556573,-1.578399062,K2WC2O9
mp-6285,-3.666189803,BaNd2Ti3O10
mp-541679,-2.683938063,Cs2V(PO4)2
mp-744580,-2.4198868,ErCrHO5
mp-558160,-3.112244677,NaYCO3F2
mp-18949,-2.153601314,VFeO4
mp-5575,-3.698897428,GdTaO4
mp-18282,-2.32261726,ScZnMo3O8
mp-1193226,-2.5422298,Na3VP2O9
mp-22203,-2.997901945,SmMnO3
mp-565700,-3.454419825,Ti8O15
mp-559081,-1.705794008,Na2MnO2
mp-18000,-2.324710338,Ba3V2S4O3
mp-1200859,-2.812263094,Na2HoPWO8
mp-1204322,-1.447220091,NiPH15O11
mp-17617,-3.2007989,K2Ti(Si2O5)3
mp-669425,-1.131738214,Cu3BiSe2IO8
mp-557232,-2.309141119,KSmPdO3
mp-1191729,-2.663715521,LiHo(WO4)2
mp-1200185,-2.031471724,Cu5(Si2O7)2
mp-1101806,-2.407122418,Sr3Co2(ClO2)2
mp-1008807,-0.19563598,RbCuO
mp-1198524,-1.209999562,Cu3TePbO7
mp-680433,-1.96404549,Ba6Ca6Tl5Cu9O29
mp-6944,-2.958992531,LiTiO2
mp-19438,-1.416515968,LiMnO4
mp-27998,-2.998902763,KNb3O8
mp-1189716,-1.727703883,AlHg2O2F5
mp-27510,-2.354296619,MgMn2O4
mp-19142,-2.329219862,Mn2V2O7
mp-23580,-2.103128732,Ba5Co5ClO13
mp-1190203,-2.373613624,Lu2CuTe2(SO7)2
mp-1203649,-1.21206491,ZnC4(NO3)2
mp-654897,-0.949878254,MnH9C4NO6
mp-555635,-2.255558741,BaNd(CoO3)2
mp-6847,-3.129711688,KY2Ti2S2O5
mp-695981,-2.004166908,VP(H2O3)2
mp-1201709,0.169696308,FeN2Cl5O
mp-690725,-1.571314585,TlCuHSO5
mp-1198563,-0.96192341,V6H36C12O19
mp-24040,-1.998003829,CrHO2
mp-680303,-0.429887572,Hg2N2O3
mp-1104229,-1.985546513,YFeCl2O3
mp-5214,-2.00722632,TiTe3O8
mp-5696,-2.532848914,La2Cu2O5
mp-758209,-2.625674819,Li2FeSiO4
mp-744954,-1.213483536,NiH12(NO6)2
mp-683963,-3.144395932,Gd3RuO7
mp-551283,-1.503165785,Na2Cu2TeO6
mp-1191333,-1.770434169,Zn2MoSeO7
mp-1202220,-2.427811378,KFe4(PO4)3
mp-24296,-1.482852942,CoH4(CO3)2
mp-1197255,0.925324323,HgN4(ClO4)2
mp-29230,-2.453868049,KV4O8
mp-554572,-2.791939577,K3NbP2O9
mp-510344,-1.415765976,Co2Hg2H2S2O11
mp-561259,-3.198856917,Na3NbOF6
mp-1069083,-0.639126344,Mn(ClO)2
mp-554842,-2.513444292,Cs5Si3AgO9
mp-697018,-1.690685496,SrZnP2(HO4)2
mp-556954,-2.470486076,Ba5Ru2Cl2O9
mp-29356,-3.142775634,NaTi2O4
mp-758167,-2.177346052,Mn3Ga4P6(H2O5)6
mp-753181,-1.680470431,SrCu2O3
mp-558497,-2.610243959,Cr(PO3)3
mp-3642,-2.732490683,ScCuO2
mp-644222,-1.459976791,CdHClO
mp-557323,-2.279615662,Na2V2ZnO7
mp-18082,-3.312052572,Sm3Ti3(SeO4)2
mp-1105404,-1.902465829,Mn7CdO12
mp-669498,-1.142300463,K2Pt(NO2)4
mp-541361,-1.533250382,K2RuNCl5O
mp-1080453,-2.020805755,NdAsRuO
mp-698351,-0.437980128,AgH6C4(NO)2
mp-555335,-2.863539902,K2HoPWO8
mp-541429,-2.734403726,BaEu2CoO5
mp-556937,-2.741528557,Y2(MoO4)3
mp-30518,-2.490766193,V6O11
mp-557843,-2.610249336,Ca2MnSbO6
mp-17775,-2.366333204,Co2Si(P2O7)2
mp-679927,-1.517536085,Rb2Sc(NO3)5
mp-1191891,-1.299400609,KZnCl3O
mp-635469,-2.29522255,CeCuSO
mp-21016,-1.761735824,FeAsO4
mp-3731,-2.908694976,LiNbO3
mp-560628,-2.16090067,CsFe(SO4)2
mp-505307,-2.759711207,Na2Si4NiO10
mp-556538,-1.388105358,Na8(CuO2)5
mp-504427,-3.163045992,Ti3PbO7
mp-22543,-2.06035824,Sr2GdCu3(PbO4)2
mp-19424,-2.683511525,TiCoO3
mp-557348,-2.86280501,BaV2(P2O7)2
mp-560619,-0.31581134,AgH12C6N5O3
mp-561166,-2.583300509,Na2ZrGe2O7
mp-1190932,-1.704765483,Co3Te2(PO7)2
mp-560530,-2.478241621,Nb2Cd2O7
mp-557303,-0.751640674,Ag2NClO3
mp-1196010,-2.388805133,Ho2Nb2S7O30
mp-28902,-2.89733562,Ba8V7O22
mp-559387,-2.219556478,Mn3V6(FeO6)4
mp-643052,-0.713044678,CuH6(NO)4
mp-542317,-2.65660223,K2U(WO5)2
mp-28620,-3.120119732,Zr3SO9
mp-1134064,-2.579305286,Be3Fe4Si3TeO12
mp-6795,-3.26892084,Ba5Ho8Zn4O21
mp-1190321,-2.186720871,Zn3P2Pb3WO14
mp-27927,-3.236277604,NbAlO4
mp-25053,-2.474603576,Sr2NiMoO6
mp-23853,-1.313068553,CoH4(ClO)2
mp-6373,-2.364587541,Li3Fe2(PO4)3
mp-581303,-2.150616747,NaCuPO4
mp-722906,-2.014926507,Na3CuB8H17O23
mp-687088,-1.142055402,Co2TeBr2O3
mp-1200133,-1.598482806,MgCuCO5
mp-1194597,-2.705668807,RbTaV2O8
mp-646579,-2.133725983,V2Ni(PO5)2
mp-698262,-1.279109319,VH16C4(NO4)3
mp-757218,-1.434231472,K4Na2H18Pd(IO10)2
mp-23731,-1.921109706,CuSi(HO2)2
mp-20135,-3.144925668,Na2Ca2Ta3O10
mp-23965,-1.154666854,CoH8(BrO2)2
mp-1192094,-1.321508411,Mn3ZnO7
mp-1275341,-2.309596502,CaFeO3
mp-1105280,-3.025912136,LiTaO3
mp-561346,-2.688333571,Na2ZrGeO5
mp-600576,-1.247807178,GdFeO3
mp-560561,-1.038106801,Cu2SeO4
mp-1194180,-1.86294194,NaCd2(GeO3)3
mp-557633,-1.933929101,Sn2WO5
mp-708035,-1.454661795,NaZn(H3O2)3
mp-653973,-2.525976,KZnPO4
mp-11706,-3.069204491,Ho2HgO4
mp-1106083,-2.469398956,SrMnOF5
mp-19159,-2.183177312,Ca2PdWO6
mp-1190949,-2.589997597,Ba2ZnGe2O7
mp-510659,-1.474921181,VCuAgO4
mp-1198745,-2.100020067,Cd6P7NO24
mp-707021,-1.856735088,Na6H2Pd(S2O7)2
mp-1072633,-0.638167267,LiTi(SeO)2
mp-9740,-3.072884382,BaDy2PdO5
mp-863300,-1.031725371,Na2VSi(W2O9)6
mp-695966,-1.382128844,CuP3H12NO13
mp-556693,-0.939660201,Te3W2Se4(Cl4O)2
mp-559968,-2.401464622,Na2NbAsO6
mp-541462,-3.444242181,SrTa4O11
mp-1203800,-1.832408902,Na2H4WO6
mp-720286,-1.423081581,Fe3P2H6O11
mp-1196510,-1.712981825,KVH2SeO7
mp-1237867,-1.599368624,FeHO2
mp-1192451,-2.58757258,HoWBrO4
mp-559681,-1.949731508,Dy2CuTe5Br2O13
mp-559813,-1.924818391,Ba9Cu7Cl2O15
mp-560825,-2.938064107,Ba2La2Mn(WO6)2
mp-1192535,-0.393032863,HgSNClO3
mp-1198871,-1.47456629,Zn3P6H6O19
mp-1200812,-1.666737898,Na5CuS4(NO6)2
mp-1194395,-2.153296189,V3As2O9
mp-761075,-2.359468485,NiP4O11
mp-4405,-0.819074287,Rb3AuO
mp-1079477,-2.716020026,Ba2VMoO6
mp-557685,-2.269001945,NbIO2
mp-1200394,-1.415802425,FeP3(HO)6
mp-18832,-2.816341082,K2VO2F3
mp-1104660,-1.155404446,Bi(PdO2)2
mp-743974,-0.79706704,MnH12C2NCl3O2
mp-29049,-1.71547192,SrCuO3
mp-1224855,-1.316862478,FeO2
mp-504468,-1.554747746,Bi3Ru3O11
mp-19522,-2.382208321,P2W2O11
mp-561875,-1.564965177,Na5Co2O5
mp-1104703,-2.294301071,Sr2NiClO3
mp-1202777,0.090654987,NiSO10
mp-504098,-1.947513449,CoPO4
mp-643841,-2.060964767,KV2P2H4O13
mp-558710,-2.442781842,Na2Zr(WO4)3
mp-18854,-2.75568951,Sr2CrO4
mp-554867,-3.027843784,Ta2O5
mp-541574,-3.108287185,BaY2CoO5
mp-560373,-1.334682583,Bi3Pt3O11
mp-699219,-2.368145852,NaZnSiHO4
mp-552674,-1.394067068,ZrTaNO
mp-744328,-0.856649123,VH7N2O5
mp-1194798,-2.174683852,Sc2Se3O10
mp-14437,-3.030379866,RbYO2
mp-21535,-2.285292486,Mn4Be3Ge3SeO12
mp-1205421,-1.80597499,ZrSCl6O
mp-603128,-2.647395315,SrEu2Fe2O7
mp-559250,-2.384648849,VPPbO6
mp-1192808,-2.577869335,GdWBrO4
mp-1198653,-2.818369792,Na2TmPWO8
mp-1201035,-0.352894185,KCo(N3O4)2
mp-552537,-2.328208694,Sr2CuBrO2
mp-1194843,-2.304035549,BaMn9V6(HO13)2
mp-556946,-2.382272871,Rb2V2Cu(PO6)2
mp-600189,-0.716430465,MnH14C3NCl3O2
mp-1190650,-1.310877597,Ni2Sb2O7
mp-1191395,-0.263863489,HgBrO4
mp-504492,0.444883148,Y6Fe16O
mp-1201965,-2.256530208,Mn5(PO6)2
mp-1195148,-1.520690825,NaMnH3(CO2)3
mp-699265,-1.135528874,BH6Ru3C6O19F4
mp-1196775,-1.446974718,CoP2H10(NO4)2
mp-556604,-2.507736775,BaCuPClO4
mp-21778,-2.141448003,Li2Fe2(MoO4)3
mp-15275,-3.353667895,NaGdTiO4
mp-1078159,-2.016649934,Ce2Fe(SeO)2
mp-1104601,-0.301924636,Co(NO5)2
mp-744644,-1.535550181,Mg2MnH24(ClO2)6
mp-1197205,-1.493215056,K2ZnH12(SeO7)2
mp-17025,-3.340909801,Sr3Y(BO3)3
mp-556438,-3.025925043,KNaSmNbO5
mp-707247,-2.183743929,Na4CuP6(H4O11)2
mp-556819,-1.898414215,Tl2Cd2(SO4)3
mp-29160,-1.883312859,TiAg2O3
mp-19281,-3.208600666,LaCrO3
mp-603612,-2.058199469,TiP4H8N2O13
mp-24300,-1.744054862,CoP4H16(NO8)2
mp-652479,-2.561743729,LiZnPO4
mp-554075,-2.334104376,SmCu(MoO4)2
mp-22597,-0.094964116,RbCd(NO2)3
mp-22697,-2.034000194,Ni3(PO4)2
mp-17824,-1.409069265,Co2Mo3O8
mp-505259,-1.3911697,SmFePO
mp-17335,-2.375223339,ErAg(WO4)2
mp-29680,-2.418290213,Ta2Bi4O11
mp-1197400,-1.837490349,Mn7(PbO5)3
mp-18387,-2.602545548,KCrP2O7
mp-561445,-2.412478045,FePO4
mp-560791,-2.756766999,CsNaTiO3
mp-15750,-2.603046528,TaAgP4O13
mp-1195169,-1.003115348,Zn3(Se2O7)2
mp-1196440,-0.350363517,ZnSi4H35C13ClO
mp-1079926,-3.1159497,La2ZrNiO6
mp-1200249,-0.855694346,ZnH24C6(N7O6)2
mp-12185,-2.413200757,LiCu(PO3)3
mp-29173,-1.674292658,V2Se3O11
mp-543034,-2.636345082,Ba3Zn6Si4TeO20
mp-679984,-1.701290465,Cs4Ru2Cl10O
mp-19191,-2.681588586,Nd2NiO4
mp-562450,-1.071235554,Co8Te(AsO8)2
mp-1103779,-2.49273082,MgCr2O4
mp-19227,-3.021783725,YMnO3
mp-696903,-1.320374978,MnH4(SO6)2
mp-1189477,-2.391853573,Cs2FeOF5
mp-572375,-1.713339309,Cs2Cr4Cd(HO4)4
mp-541474,-1.17097112,Pt(OF3)2
mp-698349,-0.525138255,CdH6C4(S2O)2
mp-653429,-1.934927883,Mn7FeCl3O10
mp-1202137,-1.989250671,Ca2CuAs2(H2O5)2
mp-1198142,-2.832052505,NaNbO3
mp-19426,-2.722782536,CaWO4
mp-652229,-0.78156884,Co4Ge(CO)13
mp-1202651,-2.081033398,KVAsO5
mp-721789,-0.63239379,CuH18C4N10(ClO)2
mp-667343,-1.44283891,Re2(HgO2)5
mp-561386,-0.803861567,K2Hg3C8(NO)8
mp-1204554,-1.603806008,Zr2(SO6)3
mp-1105272,-2.683181741,Sr2ZnWO6
mp-1102717,-2.721948843,BaWO4
mp-24733,-1.803450794,NaZnP3(H4O5)2
mp-19845,-2.698644701,TiPbO3
mp-557994,-3.126514516,Ba3Sc(BO2)9
mp-1077081,-2.640746926,Na2TiO3
mp-1193386,-1.242988153,NaCr2FeO10
mp-18819,-2.159078668,Ni2P2O7
mp-867515,-1.626342654,NaCoO2
mp-1196868,-0.641523011,Ag2H2C2N6O13
mp-5072,-1.31092526,Rb2HgO2
mp-560324,-1.964083723,Rb3Hg2S3ClO12
mp-540969,-2.20404907,V2ZnO6
mp-19393,-2.622812196,NdMn2O5
mp-555869,-2.408614128,LiV2O5
mp-1105642,-1.753685119,TbFe4(CuO4)3
mp-696066,-1.195963918,Ba2Zn(HO)6
mp-24069,-1.922327748,MnH2(SO4)2
mp-632802,-1.987551404,Ba2CaTlCu2O7
mp-1205198,-2.301911141,NiP5O14
mp-20477,-2.275870208,BaLa(CoO3)2
mp-1192806,-1.309132367,Cu(CO2)4
mp-18889,-1.251538803,VAg3O4
mp-1078727,-2.123673368,Ba2BiIrO6
mp-559831,-1.77690435,Na3V(SO)2
mp-19181,-3.08020739,BaHo2NiO5
mp-22194,-2.087897903,NbFeO4
mp-704943,-2.029680733,Li2Mn3ZnO8
mp-3998,-3.715289158,LaTaO4
mp-561754,-1.227093431,KGaCoC4Cl3O4
mp-510544,-3.446334915,SrSm2Nb2O9
mp-1201876,-2.520854063,La2Fe(SeO)2
mp-558663,-1.927640458,Ca2CuTe4(ClO5)2
mp-1202343,-0.11312972,Cu(BrO4)2
mp-1204339,-1.589842781,UCr4(H3O4)6
mp-18525,-2.664193675,TbMn2O5
mp-6274,-2.691822477,Mn3Cr2(SiO4)3
mp-5824,-0.805117492,Hg2NO4
mp-1194160,-3.530120588,BaHf(SiO3)3
mp-554623,-3.450165236,Sm2Ta2Cl2O7
mp-6655,-3.577793865,Y2Be2SiO7
mp-24648,-2.517520032,RbFeBP2HO9
mp-27815,-2.112687766,NbCl3O
mp-9812,-1.832091238,ZnCO3
mp-21728,-1.591187958,TlV3Cu5O13
mp-17304,-2.288105875,Ba4Ru3O10
mp-6090,-1.834263948,Na2Cu(CO3)2
mp-669427,-2.148840071,RbCuPO4
mp-1202238,-1.88606683,Cs2Fe2(MoO4)3
mp-31758,-2.881430732,Ba3NbFe3(SiO7)2
mp-36480,-2.992811734,La2CuO4
mp-18715,-2.859656026,Yb2Be2Si2NiO10
mp-1189708,-2.154428807,Na3Ag3W2(OF)6
mp-22523,-2.60225548,U2Co3O8
mp-35475,-1.549261153,MnV2O4
mp-551749,-2.71152052,La3(NiO3)2
mp-555268,-2.496727881,K2Sm2IrO7
mp-15004,-3.549401019,Ca3ZrSi2O9
mp-555764,-2.88054201,BaNb10SiO19
mp-28812,-0.670209882,Ag5BiO4
mp-1193070,0.189042331,CuS2(N2O3)2
mp-12326,-2.375954705,CaZn(GeO3)2
mp-558568,-2.327002485,Rb2CdSiO4
mp-28382,-1.503674102,K4ZnO3
mp-1199771,-2.439928752,Ce2Nb2S7O30
mp-1205113,-1.214467446,VN3O10
mp-22620,-1.824907608,CeZnSbO
mp-20693,-1.798736074,In(FeO2)2
mp-1196074,-1.547135708,ZnFe2H28(S2O15)2
mp-735484,-1.389128222,CrP2H17N4O9
mp-16136,-3.109245156,Sr3TaGa3(SiO7)2
mp-1197022,-1.931000043,CrB2(PbO2)6
mp-19128,-1.409615797,CoO
mp-19516,-2.489998225,Al2(WO4)3
mp-6551,-2.830355207,Mg3Fe2(SiO4)3
mp-1204434,-1.746038105,Fe(PO4)3
mp-22089,-1.20064039,Hg2Os2O7
mp-10966,-2.529390672,Tb2Cu(GeO3)4
mp-1202185,-0.06570262,HgN2O3
mp-8564,-2.956038963,CsK2Sc(PO4)2
mp-546552,-2.134793601,KCrO2
mp-556058,-1.637343139,Na2RuO3
mp-3538,-1.032866902,Hg3TeO6
mp-1205097,-2.427414121,NaFe7(PO4)6
mp-1244594,-2.339969325,La4MnS6O
mp-849796,-1.567969557,NaZn4H18SClO16
mp-560911,-2.62905898,Mn3B7BrO13
mp-688785,-2.734033871,Al2NiO4
mp-556265,-2.218005074,Cs6Si2NiO8
mp-3756,-3.706804526,SmTaO4
mp-680312,-2.531345694,La6Ti3Se9O5
mp-554590,-2.262958734,Cu3B7BrO13
mp-558786,-1.137055535,Ag6GeSO8
mp-20029,-2.547694114,SrCrO3
mp-22118,-1.13649331,Rb2CoPb(NO2)6
mp-21333,-1.769969885,Cd(FeO2)2
mp-558944,-1.160423357,Tl2Cu3(SeO3)6
mp-630336,-0.197436228,AuCl5O18
mp-1201219,-1.343949401,VH10SeNO9
mp-29917,-1.993995224,Ca5(CuO2)6
mp-545796,-1.664550795,Cr3O8
mp-4591,-3.248240816,SrNb2O6
mp-705013,-1.693444575,CrBi8O15
mp-1095623,-2.089574426,AlHg3(OF3)2
mp-18988,-2.189953665,Li2MnO3
mp-20651,-2.979244979,TmFeO3
mp-552028,-3.311450858,Nd2Ti2S2O5
mp-6027,-1.794786064,Ba2Tl2CuO6
mp-510278,-3.626867836,GdTiO3
mp-558151,-1.783665251,Ag2PO3F
mp-505052,-2.902466121,Nd2NiO4
mp-1190498,-2.097126892,Zn3TeP2Pb3O14
mp-1200892,-3.786189698,BaSm2Sc2O7
mp-649756,-1.207752238,AgAsS6N4(OF3)2
mp-20017,0.586367181,K3Ir(NO2)6
mp-23114,-2.234370605,Sr2Co(BrO)2
mp-13334,-1.95211048,ZnSnO3
mp-644277,-1.883159778,Fe2CuH4(OF4)2
mp-19260,-2.348682545,Li2WO4
mp-559729,-0.888400408,K2Fe(CO)4
mp-23094,-3.050928651,Ba5V3ClO12
mp-1189476,-2.963930314,NdMnO3
mp-1196983,-3.907862521,Ba2Y3Si2O8F5
mp-560443,-0.734838699,AgHg2NO5
mp-1190882,-2.677630351,LiLu(WO4)2
mp-555612,-2.143554492,Sb4IrC5ClO5F22
mp-16994,-1.691325696,MnTe2O5
mp-21213,-2.222754345,NaCr(GeO3)2
mp-669466,-0.764053621,AgNO3
mp-540577,-3.201405191,KZr2(PO4)3
mp-644841,-1.159208354,K2Pd(NO2)4
mp-1106099,-3.096936473,Y2MnCrO6
mp-981103,-2.640227854,Sr3CdO4
mp-1202139,-1.934966172,VPPbO7
mp-1190383,-2.529997201,CaWO4
mp-11892,-2.686012609,NaNd2RuO6
mp-10335,-2.165119537,Ba2CuTeO6
mp-698483,-1.740041181,U2CuAs2(HO)24
mp-1194023,-2.613856604,BaCo2(PO4)2
mp-600168,-0.516458434,CoH9C6(S2O)3
mp-553281,-3.397159311,Ba2LaNbO6
mp-1104582,-1.736361086,NiP3NO9
mp-18492,-2.396654044,Na2Zr(MoO4)3
mp-6289,-2.904767942,Ba2Ti(GeO4)2
mp-12931,-3.711616187,SmTaO4
mp-1178754,-1.360480387,W2O7
mp-27303,-0.720986609,NaAg3O2
mp-510508,-1.881291049,Ba2(IrO3)3
mp-556713,-2.568941419,Zr(WO4)2
mp-722864,-0.836879695,H12PtN6(ClO3)2
mp-558920,-2.842288625,NaNbO3
mp-1194673,0.948671273,CrN3O8
mp-558159,-3.541779,BaTi2O5
mp-14100,-1.231758664,Cd(RhO2)2
mp-1103905,-1.557040358,NaCu2(SO5)2
mp-1069855,-0.328005753,Co(ClO)2
mp-17753,-3.04873263,Nd3RuO7
mp-650695,-0.92447079,Os2Pt(CO)9
mp-6696,-2.97848738,K2Ti2(PO4)3
mp-555607,-2.387511068,K8Hf(MoO4)6
mp-558725,-2.406080556,Ba5Ru2Br2O9
mp-19052,-2.270198943,K3VO4
mp-562055,-2.315185835,Yb3Fe5O12
mp-1019791,-2.605022816,K2Zn(PO3)4
mp-634965,-1.471291421,NbO
mp-558198,-2.152776161,Na2Cd(SO4)2
mp-556984,-2.51095306,Na3Fe2(PO4)3
mp-1196652,-2.051757985,Rb2Mn2(MoO4)3
mp-662606,-1.520467727,LuTa6Br13O3
mp-1203118,-1.16914126,RbY(CO3)4
mp-27580,-1.774474937,Zn3(AsO3)2
mp-1201822,-1.535615797,ZnFe4NiO8
mp-545735,-2.767727504,Ba2NdRuO6
mp-27576,-3.315147609,Sc2GeO5
mp-1193389,-1.672799702,Co(SbO2)2
mp-707792,-0.921134873,H2Ru3C8SO8
mp-1201950,-2.005706287,Na3SmMn3(AsO5)3
mp-31218,-1.310985769,K3FeO2
mp-1203045,-1.541514451,Co9Te5(PbO5)6
mp-1199961,-2.707835377,Li2V2(PO4)3
mp-505246,-2.161877618,NaCo3P3(HO6)2
mp-12729,-2.886474623,Ba2TmRuO6
mp-1105287,-3.136437983,Ti4Pb2O9F2
mp-505687,-2.509613861,P2WO7
mp-12832,-2.454308154,Ba3CaRu2O9
mp-546862,-1.355965748,HgPb2(ClO)2
mp-23783,-1.919162448,Ga2NiP3H8NO14
mp-551613,-2.444915129,Ba2CuWO6
mp-510620,-0.880402747,Mn2ZnH12(NO2)4
mp-9372,-2.884449221,Ba2Cu(PO4)2
mp-642938,-1.727362742,RbCr4BiO14
mp-19138,-1.75364305,BaNiO3
mp-556896,-2.205220494,Ba4AgAuO6
mp-699581,-2.56904101,V3P4PbO17
mp-19163,-2.741912266,SrWO4
mp-683928,-1.183138015,K5CeCu2(NO2)12
mp-1204386,-1.440510682,CoH8(CO4)2
mp-20530,-2.95172376,CeCrO3
mp-1193717,-0.947645096,TiCuNO4F7
mp-1197420,-1.504910551,MgCrH22O15
mp-1199909,-1.339190586,Fe3Sb5(IO3)3
mp-23456,-1.994175612,CrBiO3
mp-1203520,-0.843158592,FeH12C5NCl2O5
mp-557874,-2.343088733,KAg(PO3)2
mp-505618,-2.445219592,Ba2CuWO6
mp-555289,-2.664734079,Ti4Cr3(PO4)6
mp-510611,-1.218996123,LaCoO3
mp-553971,-1.663602059,Rb3MnO3
mp-558629,-3.155450852,Ba2ZnSi2O7
mp-600221,-0.687658824,FeH14C3Br3NO2
mp-560358,-3.308118107,Zr2P2O9
mp-1200391,-2.896322931,KNb(BO3)2
mp-1200625,-2.917442019,BaTiMn2(SiO5)2
mp-12933,-3.761582171,TmTaO4
mp-558759,-1.502390112,Cd4Te6Cl6O13
mp-1105646,-1.548253685,Zn2AsO5
mp-654812,1.113001425,CdCO3
mp-561454,-1.799661825,KAu(SO4)2
mp-1181308,-2.987341025,KUVO6
mp-19431,-2.467102827,LiYMo3O8
mp-19312,-3.060341442,BaTb2NiO5
mp-558408,-0.610080385,Nb4Te9I4O
mp-1193413,-1.761674226,ScH3(CO2)3
mp-555489,-3.586879322,LiY6B3O14
mp-560342,-0.90513537,Ag4GeO4
mp-555830,-2.645259053,Mg3Mn3(BO5)2
mp-16913,-0.836195178,Ag2SeO3
mp-10486,-1.680975905,Cd2As2O7
mp-1204784,-1.741593153,V2Pb14Cl4O17
mp-19519,-1.400438662,Ni3(AsO4)2
mp-19723,-1.335208104,InAuO2
mp-1200031,-0.476032998,ZnFe(SO8)2
mp-556725,-0.557838455,CuH8C2Br3NO
mp-1194060,-1.462082307,CeCr2O10
mp-9186,-1.418917718,CdSeO3
mp-505176,-1.964613708,Co2P2H4O9
mp-541041,-2.722763803,NdAg(PO3)4
mp-1187832,-2.019499165,Tl2ZnP4(HO2)8
mp-557224,-1.058163174,HgSeO3
mp-667803,-2.453849941,Nd2Cu2O5
mp-554279,-1.665605743,Tl3Hg2S3ClO12
mp-1205470,-1.340150701,CaHgH16(BrO2)4
mp-560549,-0.92005978,AuSeClO3
mp-24470,-2.190480463,Fe4P3(HO5)3
mp-510453,-0.721321405,Ag3RuO4
mp-1079455,-1.473474139,CeNiAsO
mp-555377,-2.372665053,Li4WO5
mp-637502,-0.800018694,Mn2SnC10(BrO5)2
mp-1191890,-3.697781002,Gd3NbO7
mp-601227,-0.609050342,H12W3C4S2Cl9O2
mp-1194095,-1.049737384,TiAg2(IO3)6
mp-757608,-1.764108125,Hg2P2H4O9
mp-1193101,-2.477199301,SrMnO3
mp-698362,-0.976565559,H22IrC3(N3O4)2
mp-558316,-2.450670937,La4Ni3O10
mp-1197156,-0.586092815,NiH20C12S2(NO4)2
mp-31126,-1.454373059,Na3CoO3
mp-504714,-2.307486075,Ni3B7IO13
mp-554909,-2.332241952,Ba3MgIr2O9
mp-1079194,-0.689463298,K2PtO6
mp-546027,-2.002153359,CrBiO3
mp-18921,-1.637770408,NaCoO2
mp-19205,-3.220287871,ErVO3
mp-560167,-2.048796373,KV3Cd4O12
mp-744721,-0.434839142,CrCo3H24C6(N10O11)3
mp-1189159,-1.382000699,Eu3FeO6
mp-1205475,-1.477901797,FeH10S2NO11
mp-1190245,-4.009276475,Gd2Hf2O7
mp-1196909,-2.43240768,MgFe2BO5
mp-1201121,-1.444780871,CuTePb3CO10
mp-560888,-1.625877163,CuMoO4
mp-510708,-2.627583802,LiFe(SiO3)2
mp-556867,-3.153589189,K2PrZr(PO4)3
mp-545792,-2.483499538,Ba2CoReO6
mp-559532,-2.630598239,NaFe3Si3O10
mp-650741,-1.687034651,Cu4Mo5O17
mp-27556,-2.843741165,CsNbO3
mp-1190325,-1.797063814,Ag2P2PdO7
mp-19471,-3.223253706,Ba5Sm8Mn4O21
mp-23407,-0.815316654,Hg(IO3)2
mp-16894,-2.559439329,Cr7(PO4)6
mp-22010,-2.753134258,Ta2CuO6
mp-24008,-1.701698862,K2FeH2Cl5O
mp-641683,-2.222934954,Eu2Ir2O7
mp-1205352,-1.71075366,BaPd(SeO3)2
mp-1196748,-1.3387408,LiMn3H6(SeO3)8
mp-29366,-2.460420947,PWO5
mp-28095,-0.876780778,Au2Se2O7
mp-6603,-2.850719931,Sr2CeIrO6
mp-20643,-2.579459793,Y2Ru2O7
mp-551214,-2.266982573,CeCrS2O
mp-1198261,-1.129417159,ZnPNO4
mp-18129,-1.930121079,La2ZnGa2S6O
mp-554562,-2.024737427,Ti2Cu9(B3O11)2
mp-541930,-2.524476995,Fe(PO3)3
mp-14921,-2.426632048,Zn4B6SeO12
mp-1191380,-2.642769287,FeB4O7
mp-15053,-1.992685143,Y(PdO2)2
mp-638374,-2.637729058,BaNdFe2O5
mp-1199636,-1.92230566,U3Ni2O9F16
mp-558968,-1.250679503,Mn2P2C12S(O2F3)4
mp-1203069,-2.171178556,WO3
mp-541164,-1.137638797,Hg9(AsO4)4
mp-30251,-2.582920728,YAuO2
mp-559097,-2.070089106,NiAs2S6(OF)12
mp-616555,-0.706357109,MnC4NO5
mp-1200544,-2.496473771,Ta3(Bi2O7)2
mp-14970,-2.87122657,BaLaCuBO5
mp-1196503,-1.646875918,CaFe2(AsO5)2
mp-18910,-2.568022696,BaV4O9
mp-651008,-2.694403296,YbCo(BO2)5
mp-6695,-2.807475683,BaCdP2O7
mp-3175,-3.523555653,BaTi4O9
mp-647813,-2.081746801,Cs2CrO4
mp-19420,-2.979694126,Sr2MgWO6
mp-21059,-2.403586836,Sr4Fe4O11
mp-504678,-1.285728054,CoSeO4
mp-1020740,-3.101990779,YBe2B5O11
mp-558825,-2.117401712,K4Mn(MoO4)3
mp-643954,-2.07080467,KCoPH2O5
mp-1203969,-1.358725365,ZnP3H16C3NO12
mp-9757,-3.017569938,BaSm2PtO5