material_id,formation_energy_per_atom,pretty_formula
mp-510248,-2.768388452,BaGd2Mn2O7
mp-1189828,-1.476020305,YCu6ClO8
mp-561891,2.176984531,AgCNO
mp-30154,-1.39446498,Fe2Mo4O7
mp-560040,-3.308248906,Ca2Nb2O7
mp-559765,-1.540161896,KHg2S(ClO)3
mp-1194334,-1.769908394,BaCr2PO11
mp-680388,-1.373578682,ZnCuTeCl2O3
mp-624691,-1.739772519,VAgO3
mp-17059,-2.993470861,K3Nb3Si2O13
mp-558631,-2.553942628,Mn3(PO4)2
mp-14964,-3.727031724,Pr3TaO7
mp-1079901,-2.703686737,Ba2CrMoO6
mp-15983,-3.131181391,Ba2NaNb5O15
mp-26963,-2.6740722,LiVPO5
mp-743538,-1.609767292,CrH18(O3F)3
mp-1204887,-2.862462204,K2HfO2F5
mp-554098,-0.919256934,Ti6O
mp-1198362,-1.322715773,Tl2NiH12(SeO7)2
mp-555515,-0.809631468,CuAg4TeO6
mp-6394,-2.569114315,RbTiAsO5
mp-4387,-3.671425518,SrZrO3
mp-1192188,-2.679177704,KHo(WO4)2
mp-562172,-0.889517193,CoAg(NO3)3
mp-558855,-1.692163688,Cr8O21
mp-605120,-0.668355405,CuH10SO9
mp-1019725,-2.925940456,CsY(PO3)4
mp-755652,-3.874504262,Dy3TaO7
mp-18902,-2.33273473,Li2WO4
mp-720863,-1.162993488,CoH19S3N5O11
mp-697926,-1.555592616,LiCd2HSe2O7
mp-1106155,-2.668076389,Ca2MnReO6
mp-720324,-0.478737308,NiH12S2O9
mp-30194,-1.240057243,Rb3CoO2
mp-510608,-1.515694729,ZnCuAsHO5
mp-14865,-3.314647367,Sr4Al6WO16
mp-555160,-2.431529345,CsYSeCl2O3
mp-6491,-2.560679993,Na2ZnP2O7
mp-1188871,-2.447779986,Pr2Cu2O5
mp-9746,-2.368755576,Ba3NaIrO6
mp-695967,-1.631659995,Ag3P6H12N3O19
mp-1202623,-3.690862741,BaLa2Ti3O10
mp-542807,-1.061250644,Cu2Te2Br2O5
mp-7094,-1.720215536,ReAgO4
mp-13335,-2.450714628,Cd(BO2)2
mp-504747,-1.662933998,V2Cu3O8
mp-562327,-1.317484857,Co5Te4Cl4O11
mp-565843,-2.854078944,BaCu(SiO3)2
mp-560934,-2.446800392,Na2Zn5(PO4)4
mp-1196448,-1.35516202,VS2NO9
mp-1191267,-0.499594087,AgClO4
mp-3742,-1.919386011,SrFe12O19
mp-7181,-3.365669453,CsSr2Ta3O10
mp-1194948,-2.270949047,Ba2Cu2Te2P2O13
mp-19177,-2.062564552,CrO2
mp-504834,-0.264905526,Zr3V3O
mp-2657,-3.474758596,TiO2
mp-1196847,-3.045365123,Mg5Nb(BO4)3
mp-644729,-0.465764752,AgN3O4
mp-19107,-2.380132912,LiMnVO4
mp-555758,-2.399749461,Eu3Fe5O12
mp-615529,-0.939875403,Os2Pt(CO)10
mp-1193296,-3.229147012,LiTi2O4
mp-540739,-2.464446406,Ba3YIr2O9
mp-1079272,-3.277276495,Sr2ZrVO6
mp-683957,-2.387516776,Nd4CuTe5(ClO5)3
mp-19432,-2.415824069,KNaV2O6
mp-1079705,-3.636215549,Ba2LuTaO6
mp-28403,-2.868417217,Ba2WO5
mp-1192317,-1.548517758,Mn(PO4)2
mp-19735,-2.979376346,La2CuO4
mp-1249697,-2.440646263,Mn2Fe3(SiO4)3
mp-504885,-2.99457436,BaFe(Si2O5)2
mp-652337,-0.559523777,Fe3Te2(CO)9
mp-14972,-3.290911548,Ba3Sc(BO3)3
mp-720258,-1.118707308,CrP2H16N3O10
mp-559493,-1.826268105,TiPCl7O
mp-562105,-1.231459091,Rb5CeCo2(NO2)12
mp-540905,-3.184164256,YAlGeO5
mp-555912,-2.332892125,PrCu(MoO4)2
mp-1191402,-2.545964662,GdMnGe2O7
mp-546279,-3.02239142,ScBrO
mp-686949,-1.823329588,ThCr(IO5)2
mp-542737,-2.50571815,TiZn2O4
mp-619034,-2.649112623,ZnSiO3
mp-1195315,-2.118663009,Ba12(CoO3)11
mp-558641,-0.70863774,FeH44C12(N5O8)2
mp-721317,-1.821112692,Na2CuH4(SO5)2
mp-6730,-2.396219528,Sr3ZnPtO6
mp-554381,-2.756225795,Ca2VBiO6
mp-558460,-0.979948035,NaAg(NO2)2
mp-1079509,-2.813934044,NaTi2HO5
mp-1201033,-1.720248359,Na3V5H26O27
mp-1201489,-0.998439527,K2Mn(SO6)2
mp-607026,-2.190429088,V2PbO6
mp-1105225,-2.732169455,Sc2MnNiO6
mp-1198628,-1.667293546,Na3RuO4
mp-1194817,-2.836499781,Na2ScSiO5
mp-1181491,-1.346239208,CuSi(O2F3)2
mp-1195655,-1.246483328,CdCu(SeO3)2
mp-558666,-2.955868047,KVOF4
mp-25991,-2.311953651,Li2Ni3(P2O7)2
mp-646670,-1.781841912,Ba2Co4ClO7
mp-23111,-2.53789107,Mg2VBiO6
mp-3200,-3.792740687,Lu2Ti2O7
mp-1104542,-1.063058674,Cu(RhO2)2
mp-21372,-2.223590626,CePRuO
mp-19257,-2.971302427,SmCrO3
mp-1196626,-2.433395847,SrCo3(P2O7)2
mp-600604,-0.416126994,CuO2
mp-556039,-2.845542274,Na3Y(BO3)2
mp-14694,-2.618731376,CaCuP2O7
mp-546989,-2.164905368,V2MoO8
mp-1020160,-2.633902265,Na3Zn(BO2)5
mp-542697,-1.696000958,Rb2RuO4
mp-1202008,-0.838242575,CuAg2(NO3)4
mp-572944,-2.794409795,CsUCrO6
mp-561121,-3.017412893,CsTi3P5O19
mp-616444,-0.796298425,Co2C5SO5
mp-1106325,-1.155564753,CaCu3(PtO3)4
mp-1079784,-1.922621092,Sr(RuO3)2
mp-542767,-2.869088418,Sr2TmRuO6
mp-19489,-2.886284315,SmCo(BO2)5
mp-557217,-2.11269765,Cr2PIO4
mp-1079887,-1.821298133,TbFeAsO
mp-1200471,-2.324857623,CsV3B2P4(H4O11)2
mp-14560,-3.463435303,Ca2Ta2O6F
mp-554449,-2.295934763,Mn2BiPO6
mp-6507,-2.589427926,Na2Zn2Si2O7
mp-541537,-2.479164826,K2ZnSiO4
mp-566717,-1.699733461,Fe2BO4
mp-1198534,-2.116858543,Y2C3O11
mp-1008867,-0.701211119,NaCuO
mp-754842,-2.595911491,LiFeSiO4
mp-555616,-2.128011775,CaNb2Bi2O9
mp-1202551,-1.369872965,CuAsH3O5
mp-19473,-2.411544543,CaNi3(P2O7)2
mp-707485,-1.689333568,K4Cu3As4(HO8)2
mp-542420,-1.679102312,Cs2NiH12(SO7)2
mp-28568,-1.242936272,Rb3CuO2
mp-1204815,-1.116196291,CoH2CO3
mp-636731,-2.53648971,Zr(MoO4)2
mp-24405,-1.924763053,LiCd4Ge5HO15
mp-28338,-0.895227963,Mn2O7
mp-1079573,-1.858630634,Pr2Fe2S2O3
mp-15161,-2.594107604,Tb2Ru2O7
mp-23929,-1.270029913,ZnH8(NO5)2
mp-555880,-2.217355843,ZnBi2B2O7
mp-558401,-1.646385145,Na5WNO4
mp-24656,-2.17343806,YH3(SO4)3
mp-558974,-3.032105322,Pr5(RuO6)2
mp-1196506,-0.965117922,Zr5Si6H36C12(Br10O3)2
mp-22416,-3.589501717,SmTiO3
mp-540947,-2.347805227,CoNi(PO3)4
mp-559316,-2.311932572,CsV(SO4)2
mp-1095367,-1.412908853,MgCu2AsO7
mp-6652,-2.334304907,KZn4(BO3)3
mp-1195869,-1.588596269,K2RuCl5O
mp-721471,-1.796772555,CuPH4O5F
mp-581237,-2.541719369,K3Fe2(PO4)3
mp-683997,-3.020043317,Ce3NbS3O4
mp-18634,-1.782194375,CdSO3
mp-505087,-1.923885014,Co3P2(H2O5)2
mp-19249,-1.897814723,YbNiO3
mp-9870,-3.069342139,K3Ta3(BO6)2
mp-1199654,-1.773970184,Ag3P3O10
mp-1194234,-2.134023939,Ca2V2O9
mp-698367,-0.51882538,CrH9C6(S2O)3
mp-723082,-1.447843648,Na5Te2H36AuO28
mp-4100,-2.746840819,Ca4IrO6
mp-975505,-2.143571608,Rb2CoP4(HO2)8
mp-1191467,-2.398081874,Cs2CuP2O7
mp-704116,-2.852793349,KMn2Zn3(Si2O5)6
mp-24071,-1.808061885,MnH6(SO4)4
mp-18659,-2.595663461,SrCo2(PO4)2
mp-639164,-1.191597342,Co7Te4(BrO2)6
mp-19520,-2.827700421,NdNi(BO2)5
mp-510467,-1.710717598,K2CrH2Cl5O
mp-554866,-2.391248937,PWO5
mp-19721,-3.541007786,GdNbO4
mp-562742,-2.350116336,Co3P4PbO14
mp-18727,-2.935541956,LiCr(SiO3)2
mp-17502,-2.883388183,SrVPO6
mp-562437,-3.17223157,KCa9Co(PO4)7
mp-1192494,-2.441308274,Fe2SiO4
mp-1196958,-2.315362147,V6O13
mp-1104362,-3.315457585,La2Ta2O9
mp-1195606,-1.640788032,K2Zn3(SeO3)4
mp-32777,-2.170157752,WO3
mp-554886,-3.132906322,Ba3Nb2(P2O9)2
mp-744259,-2.578367922,Ca3Mn2(GeO4)3
mp-1079568,-1.486949815,NaIrO3
mp-744081,-0.939955602,K6W2N4O3
mp-28235,-0.838355133,Tl(CuO)2
mp-14550,-2.648944143,TiCdO3
mp-643081,-0.69391485,Fe2(CO)9
mp-19101,-3.088949386,BaEr2NiO5
mp-561748,-2.277646737,CsV(MoO4)2
mp-1196766,-0.206302598,CeNi2N17O24
mp-1195890,-2.651130827,Ba3MnV4O14
mp-559680,-2.249521116,LiV(GeO3)2
mp-555266,-2.266829212,Na2VS2O9
mp-1181383,-1.666994882,K2Co(B2O5)6
mp-1199112,-1.746077714,BaV(AsO5)2
mp-22458,-2.636042339,Sr2MnGe2O7
mp-22005,-2.151820712,V2Pb2O7
mp-24635,-1.648698124,Re2Ni(H2O3)4
mp-559505,-1.98864175,VTeO4
mp-8207,-1.115949413,Zn(PtO2)3
mp-1198140,-1.692029067,V4Cd(SeO6)3
mp-16055,-3.272068631,KLi3Zr2(Si2O5)6
mp-22264,-3.163639979,CsSr2Nb3O10
mp-542837,-2.71477447,BaWO4
mp-556279,-1.894508767,K2Ni2(MoO4)3
mp-696931,-1.151259748,TlCuHSeO5
mp-557503,-1.239111073,Cs2Ni(NO3)4
mp-1188497,-2.415112036,CaMnO3
mp-560291,-2.020572832,MgV2(CuO4)2
mp-709069,-2.070404654,Ti2P4H9C2NO16
mp-780696,-1.702690488,CaMnAs2(H3O5)2
mp-542724,-3.567014067,LaNbO4
mp-1104364,-0.129708586,Cd(BrO2)2
mp-560130,-1.690122543,Fe2Ag(MoO4)3
mp-3629,-2.739623463,Y2(WO4)3
mp-698276,-1.127244165,CuH11C4(NO5)2
mp-6166,-2.288628905,PrCuSO
mp-1199593,-2.827631123,NaNbO3
mp-5770,-0.597477505,AgNO2
mp-653788,-0.731089344,MnC4IO4
mp-558231,-2.52472174,Ba3Ho2Cu2PtO10
mp-1200850,-1.320390839,V3Se2NO12
mp-652711,-0.876133709,Bi2Ru3(CO)9
mp-18033,-2.789900718,Na2Cu(Si2O5)2
mp-1185383,-3.259421022,Eu5Nb4O15
mp-1195702,-2.103673487,SrV2(CoO4)2
mp-696994,-2.003792978,Zr2H16SN3(O2F3)3
mp-29855,-2.702328054,LaV3O9
mp-1102255,-3.220807396,TiO2
mp-555105,-3.034162333,Ta9Pb12O20F29
mp-15800,-2.032452905,Ti3PO2
mp-1078329,-1.482832015,ZnPbO3
mp-556413,-2.551501902,Na4Cd2Si3O10
mp-20435,-2.618269611,V(PO3)3
mp-556980,-1.863706582,Sn3WO6
mp-19271,-2.337443048,BaCrO3
mp-554700,-2.017631549,V2Zn3TeO10
mp-28783,-1.708587659,CoReO4
mp-720713,-1.968393854,V2P2H6PbO14
mp-759413,-1.685226364,ZnPH4NO4
mp-560887,-1.161644172,ZnGaNO
mp-1200300,-2.842887361,K2SrVB5O12
mp-735715,-2.765437875,YbV4O8
mp-1203841,-2.086040834,LiVPH4O7
mp-1201236,-2.325875877,Mn2V(PO5)2
mp-1095460,-0.673494087,Hg4SbHO6
mp-1189956,-2.746536508,BaMnOF5
mp-705524,-0.539197503,CuH7C3SN3O4
mp-553936,-0.874372002,K2Ag4Pd3(NO2)12
mp-680387,-3.189318781,PrYSi2O7
mp-1192871,-1.804195663,Tl2V(SO5)2
mp-12233,-2.696471941,ZnB4O7
mp-558442,-2.563793467,Cr3B7IO13
mp-974482,-3.421472872,K4Hf5O12
mp-19474,-2.929278269,Ba2V2O7
mp-18730,-1.494822601,K3Na(FeO4)2
mp-5052,-2.652738536,TiCdO3
mp-19174,-2.131995916,BaMnV2(AgO4)2
mp-10559,-3.099102833,Gd3AuO6
mp-1196945,-2.149083792,Cd3B4(PbO4)3
mp-505353,-1.913939115,CoAgPO4
mp-1193084,-3.779453134,BaY2Si2O7F2
mp-1190527,-2.450872732,Dy2ZnTe2(SO7)2
mp-744181,-1.814617598,K2Cr2AsHO10
mp-556467,-1.473018694,Rb4Nb2S10O
mp-643125,-2.533948437,Cs2Co(PO3)4
mp-21344,-1.586077401,CuGeO3
mp-553996,-1.956080983,K2UCr(IO6)2
mp-5388,-1.758598028,Zn(SbO2)2
mp-540956,-1.763065733,YH18C3S3(O2F)9
mp-1195436,-2.200684978,Cd3BPO7
mp-5537,-2.191404446,NbAgO3
mp-1191609,-1.809968962,V2FeAgO7
mp-21444,-2.63279481,LaMn2O5
mp-556765,-1.860944852,NaFe2(MoO4)3
mp-20223,-2.128037838,Mn2GeO4
mp-18831,-2.88831636,Y2Mn2O7
mp-1080434,-2.611792363,Sr2YCoO6
mp-10347,-3.331526881,CsCa2Ta3O10
mp-1200792,-1.38176384,FeP4(C2O5)2
mp-1195246,-2.220610503,Sc2Te(SeO5)2
mp-556993,-2.081005875,NiBiPO5
mp-1199803,-1.881132468,K4Mn2S4O19
mp-555698,-1.836704806,FeB2C6(O3F4)2
mp-1198767,-2.398673832,SrV2TeO8
mp-1197716,-2.875737846,BaCu(SiO3)2
mp-19732,-1.107768113,Cs2CuPb(NO2)6
mp-10070,-2.636150995,BaAg(PO3)3
mp-555444,-3.249370766,CeZr6(PO4)9
mp-1193494,-2.131191793,MnAgPO4
mp-6488,-2.576472331,KTiAsO5
mp-16867,-2.273878197,YbCu(WO4)2
mp-505623,-2.334961519,Al(FeO2)2
mp-25411,-1.398878787,LiNiO2
mp-540640,-3.494466008,Sr2Ti6O13
mp-552185,-0.769071031,AgNO3
mp-616601,-2.292979915,Ba2InRuO6
mp-559818,-2.005391968,SrMn(SeO3)2
mp-6941,-2.383158031,Y2Si3N4O3
mp-26957,-2.696000112,Li2V2(PO4)3
mp-1190417,-2.165455512,YV(SeO4)2
mp-24516,-2.148039659,Co7P6(HO6)4
mp-1205442,-2.098873003,ZnBi6P2(O7F)2
mp-1198838,-0.701042189,CuH9C3N(ClO)2
mp-19751,-3.169359558,Ba2YbNbO6
mp-645208,-2.202639266,Sr2Co2O5
mp-559085,-3.275890722,Y2WO6
mp-19019,-1.739951979,NiMoO4
mp-1204591,-1.525940496,V2Cu3H6O11
mp-651434,-2.197070124,K2Mn2(MoO4)3
mp-579463,-1.229745303,Cu2Pb(SeO3)3
mp-698292,-1.661466341,K2ZrCdH16(CO3)8
mp-1197402,-0.88937139,FeTeO5
mp-680158,-2.367366462,K2Ti(GeO3)3
mp-1204663,-1.310758726,HfH14C4NOF5
mp-504844,-2.404750241,VP3(HO5)2
mp-1192780,-2.179084003,Cr2FeO4
mp-758936,-1.897843523,Na2CoP4(H4O5)4
mp-1201490,-2.598217093,Rb7GdFe6(P4O17)2
mp-17495,-2.888176362,RbTiP2O7
mp-23085,-1.892447047,Ba2Cu3(ClO2)2
mp-1203829,-1.746462459,Fe4(PO5)3
mp-616572,-2.385610406,Li2P2PdO7
mp-1178119,-2.904342833,LaNb2AgO7
mp-18734,-3.219082751,HoVO4
mp-1202713,-1.507646247,IrClOF6
mp-1195975,-2.125545884,Mn5P4(H3O10)2
mp-5024,-3.117754184,ZrP2O7
mp-560330,-2.614716428,Ba3Fe2Cl2O5
mp-558871,-2.739554651,SrVClO3
mp-27226,-1.599925975,MgCu2O3
mp-558555,-1.471399073,LiFe(SeO3)2
mp-3370,-3.026222007,Y2Sn2O7
mp-662543,-0.898276514,Cu(NO3)2
mp-18765,-1.22910989,Na2NiO2
mp-19026,-1.593564034,Na4FeO3
mp-504754,-2.157812656,VP2H4O9
mp-24538,-1.638342419,K2H12Ru(SO7)2
mp-642737,-1.110386608,Cu2H3ClO3
mp-559949,-2.282545353,Zn3(BO3)2
mp-557589,-2.425447026,TlZn(PO3)3
mp-554477,-2.487664879,Ba4NaMn2O9
mp-1201698,-0.99931633,CoAsO5
mp-1104410,-2.210833062,BaDyFe4O7
mp-643427,-1.92275801,MnH2SO5
mp-1079118,0.637709417,Ir(Br3O)2
mp-642783,-2.673427995,Lu2V2O7
mp-24250,-1.950098788,Mn2H2SO6
mp-1204000,-1.79635503,Yb3Cu3Te4(ClO2)6
mp-1202459,-0.807928135,CrH12C2(N3O2)2
mp-1202270,-2.01927827,Na2VO4
mp-1104768,0.683094518,IrN7ClO6
mp-560125,-1.702998402,HgCS(OF)3
mp-28262,-1.686009792,Na5MnO4
mp-557741,-3.023959415,Ba17Tm16Zn8Pt4O57
mp-1197838,-1.404632928,V2Ag4O7
mp-9495,-2.236724343,Yb2Cu(GeO3)4
mp-560471,-2.263847324,Zn2B2PbO6
mp-14735,-2.784414739,La2CuSnO6
mp-8961,-3.08984454,Ba3NaTaO6
mp-27494,-3.128230256,La2CoO4
mp-17881,-2.867780039,SrFeP2O7
mp-556255,-2.18386584,K3V3(AsO7)2
mp-556475,-2.335174857,KLaPdO3
mp-14382,-2.380562623,CaV2CoO7
mp-1078566,-1.743570232,Ce2Mn2Se2O3
mp-558392,-1.479327619,Bi2Ir2O7
mp-556885,-2.213264641,Fe3B7IO13
mp-541202,-1.3996933,TlCuAsO4
mp-1200258,-1.685849095,HgS2O7
mp-1201149,-1.656091408,Fe2Cu8P4O21
mp-551451,-1.341927909,FeBiO3
mp-1190465,-0.579816638,Ni2ClO3
mp-1194584,-1.122043186,Hg3Te2SeO10
mp-720729,-2.410030072,K3Fe3P4H2O17
mp-1203466,-0.905647148,ZnFe8Ni3O16
mp-644003,-2.366640234,BaCo2P2H2O9
mp-1106253,-0.967106029,CdCl2O
mp-559938,-2.074241898,LiV3(TeO6)2
mp-696335,-2.560210555,K2FeH2OF5
mp-1194514,-2.757176077,Ba4Zn4B14Pb2O31
mp-18702,-1.969739703,AgPO3
mp-17709,-2.498563693,Na2ZnSiO4
mp-13738,-2.557766992,CsCd(PO3)3
mp-1189452,-0.458413161,Cr(ClO2)3
mp-643066,-1.809597399,ZnH2SO5
mp-1203872,-2.609559921,Na2Cu2(B4O7)3
mp-19513,-2.233395204,SrV2(AsO5)2
mp-18786,-3.098901666,Ca2CoSi2O7
mp-505424,-1.744657873,VCdCuO4
mp-16160,-2.800725632,Sm4Au2O9
mp-560784,-2.572607149,CaFe3P3O13
mp-4691,-1.101307651,Ag2CO3
mp-697501,-1.556289382,VH2SeO5
mp-720719,-3.155757091,Ca2Y2Si4H2CO16
mp-559426,-3.841793662,Pr2Zr2O7
mp-1104408,-0.49912624,Cs2Hg3I8O
mp-21996,-1.385814539,Na5NiO4
mp-542117,-1.393319502,Cd3Se3O10
mp-1095109,-2.130508686,Ba2BiIrO6
mp-505526,-2.005189797,FeMoO4
mp-6651,-3.502506691,K2Ta2(OF2)3
mp-545769,-1.648849188,MnCo(BiO3)2
mp-29047,-1.680137019,Tl3VO4
mp-863961,-2.128698545,SrNi2P2(H2O5)2
mp-558156,-1.986844754,V6Fe4(CuO8)3
mp-1188529,-1.95115558,Mn7BiO12
mp-17258,-2.255486437,Fe4Ni3(PO4)6
mp-560860,-1.515064433,Na2PtO3
mp-27565,-1.191566827,K3(NiO2)2
mp-1078748,-3.106016263,Sr2TaInO6
mp-1198609,-2.00724755,EuV(SeO4)2
mp-19359,-1.932327687,NaFeO2
mp-28853,-2.324050529,LaAuO3
mp-540932,-0.854020842,Mn(AgO2)2
mp-1193798,-2.720636619,La3FeW(SO2)3
mp-1205158,-1.895308843,VBi2O5
mp-720829,-1.368039414,VH8C2N2O6F
mp-505153,-1.076439362,K3NiO2
mp-1105765,-2.83468148,NaNbO3
mp-19362,-2.114760114,KFe(MoO4)2
mp-1202611,-0.261207686,MnH20C22(N5O3)2
mp-556619,-2.870751587,NaLaMgWO6
mp-1194719,-2.315319752,CsNa2Fe3P4ClO14
mp-679997,-2.667159627,CsAg2(B5O8)3
mp-1095337,-3.159560363,SmVO4
mp-1203139,-1.220133296,FeCuH4S2O13
mp-1103900,-2.399201521,BaMn2P2O9
mp-23811,-2.356532272,CaNiBP2H3O10
mp-504711,-0.963029154,CoCuO2
mp-21989,-3.098196367,Ca3Sc2(GeO4)3
mp-1195090,-2.2107252,CsY(SeO3)2
mp-555018,-1.307526658,RbNa2AuO2
mp-558146,-0.300659673,FeN3ClO3
mp-23595,-2.068134972,CoBiPO5
mp-6115,-2.14006043,K2Zn2(SO4)3
mp-555161,-1.243837664,Ni5Te4(ClO6)2
mp-1106248,-2.094905922,Sr2VFeAsO3
mp-1194802,-1.542386085,V2CoO8
mp-1203575,-2.652868055,K2TiO3F4
mp-1195909,-3.750925853,BaPr2Sc2O7
mp-8515,-3.01853953,BaSm2PdO5
mp-542334,-2.500638996,V5O9
mp-27156,-1.858195527,V2Co2O7
mp-6781,-0.523158688,AgCNO
mp-4662,-4.093567969,ScOF
mp-18740,-2.09315895,V2Cd2O7
mp-1200457,-1.923791641,KMn6As7O24
mp-1189790,-1.746870257,NdFe4(CuO4)3
mp-541238,-3.044012584,KTi2(PO4)3
mp-21807,-2.083029725,K2Co2(SO4)3
mp-1193015,-2.968542537,CsVOF4
mp-504552,-2.617986238,Nb2CoO6
mp-28698,-1.586263065,Na4IrO4
mp-1180470,-2.422095076,Na2Zr(SiO3)6
mp-617247,-1.758590147,Cu2BiPO6
mp-1190795,-0.544258828,CrSO9
mp-17522,-1.44909782,K4Rb2Co2O5
mp-24003,-1.775743436,CoSnH12(OF)6
mp-560733,-1.038634086,CrHg3(SO2)2
mp-541720,-2.64293478,Ba3DyRu2O9
mp-862678,-2.012667518,Sb2H8Pt(OF3)4
mp-505193,-3.157730115,BaTm2CoO5
mp-9760,-3.065966088,BaTb2PdO5
mp-622619,-2.576485152,UVAgO6
mp-1181400,-1.136967218,Fe3(PO8)2
mp-1191145,-3.010257353,Rb2LaNb2O7
mp-555399,-2.641225774,SrFe3(PO4)3
mp-17481,-3.259623339,Mg4Ta2O9
mp-562513,-3.019875581,CsUVO6
mp-24178,-1.618448704,Mn3H2Se3O10
mp-1194940,-2.425988356,Na2FePO4F
mp-1105140,-1.96413395,Co2PO5
mp-504649,-1.847564306,RbCr2FeO8
mp-21896,-2.225574893,Na2W2O7
mp-7733,-3.498458264,Ba2Ti6O13
mp-1196057,-2.946023895,BaMn2Si2O7
mp-560212,-2.065763095,Li2Ni(SO4)2
mp-707251,-1.310659563,CdH6(SO4)4
mp-1199860,-1.651115008,V2Co2Se2O11
mp-555343,-1.098710879,Ni5Se4(BrO6)2
mp-623590,-2.134964771,RbV2SeO7
mp-704504,-2.359607,YbMn2O5
mp-1203398,-2.807349194,Ta4Ag2O11
mp-27412,-2.357507528,V4O9
mp-1198637,-1.6286014,V2P2NO11
mp-19815,-3.058971851,Eu2VO4
mp-551407,-1.280603483,CoSeO4
mp-552663,-2.384725189,LiScAs2O7
mp-20674,-2.188423761,Ba2YCu3O7
mp-1201215,-1.041095668,H7AuN4O15
mp-557578,-2.315007764,NaV6O11
mp-1196692,-2.956210428,Ca5V3O13
mp-19482,-2.563125383,Na2V(PO4)2
mp-28481,-0.894913517,Ti(ClO4)4
mp-744576,-1.507022675,CoH8SO8
mp-1201128,-1.781304312,Na4Ni(PO4)6
mp-1019600,-3.808018747,CeZr3O8
mp-1204011,-0.582805495,AgH7CN8O7
mp-1202570,-1.612068107,CuGeO3
mp-1102157,-0.364282344,NaNi3O8
mp-683831,-0.650973672,Fe3MoC11SeS3O11
mp-559503,-2.156165167,KVCdO4
mp-18927,-0.905064138,Zr3NiO
mp-19081,-2.133874978,MnMoO4
mp-552113,-1.802573942,V2O3
mp-1237189,-1.672963531,FePH5CO8
mp-559562,-1.039770344,AgTeNO5
mp-556455,-2.714310361,Y2(MoO4)3
mp-1203787,-3.192810357,Ca6MnBe4Si6HO24
mp-3285,-3.200166369,Na2Ta4O11
mp-18905,-1.262935008,FeO
mp-15326,-3.043281667,Sm3IrO7
mp-1202315,-0.4893897,TiSi7H42C14(ClO)2
mp-23548,-1.014986166,AgBiO3
mp-18769,-3.171903614,CeVO3
mp-27640,-1.039217029,Cd(IO3)2
mp-556595,-3.026030747,Nd4Cu2O7
mp-557014,-2.500208715,Rb5ErHf(MoO4)6
mp-1198740,-3.108117512,Li7Nd3Zr2O12
mp-1192400,0.375058833,PdCNCl2O
mp-6553,-3.350344197,LiSc(SiO3)2
mp-6000,-3.073816527,La2Ti3(AgO5)2
mp-6668,-3.05607729,LiTiPO5
mp-604789,-1.326536775,K2ZnH12(SO7)2
mp-556206,-3.031364178,Rb3Y2(BO3)3
mp-560378,-3.609347811,Ca3Ta4(O6F)2
mp-779682,-2.705772446,NaScP2(HO4)2
mp-554441,-2.640897251,NaTi2Ga5O12
mp-16097,-3.452007083,CeSc3(BO3)4
mp-1205429,-1.405770652,FeO2
mp-1192234,-1.066869312,ZnClO
mp-13000,-3.601958371,Ba2HoTaO6
mp-1197862,-3.147563202,Ca2Y2Si4CO16
mp-18352,-2.156374028,HfTe3O8
mp-554181,-2.508476832,VPO5
mp-16772,-2.388139427,LaCu(WO4)2
mp-22223,-2.113427383,Fe3BO5
mp-18793,-2.419769625,LiCrO2
mp-559757,-2.2497379,Ba3Cu2(ClO2)2
mp-762311,-0.969643666,ZnH12N4Cl4O3
mp-720723,-2.374996277,KAl2NiP3(H2O7)2
mp-1078391,-2.264108268,CaZn(CO3)2
mp-505194,-2.351624515,GdCu(WO4)2
mp-557903,-2.627226048,Lu2Ru2O7
mp-548609,-1.514331661,Tl2Cu(SO3)2
mp-542557,-2.178942254,CsScAs2(HO4)2
mp-505342,-1.511429668,MnCu(Te2O5)2
mp-18037,-2.588505393,LiNbZnO4
mp-604368,-1.965439638,K2NaV5H10O19
mp-505037,-3.128781395,BaHo2CoO5
mp-19852,-3.270993046,Ba2UMnO6
mp-699707,-1.607122095,VCu2BiO6
mp-18959,-3.231455833,Y2Be2Fe(SiO5)2
mp-18867,-2.802196864,Ba3W2O9
mp-1192238,-3.800339825,Sm3TaO7
mp-19114,-2.572217488,Ca2NiWO6
mp-23795,-1.541046575,CuH4(OF)2
mp-18456,-2.789674356,LaCrO4
mp-555890,-3.025558869,La7(RuO6)3
mp-19770,-1.907358343,Fe2O3
mp-1199188,-0.595233523,Ti2Si7H42C14(Cl3O)2
mp-22259,-2.302601553,Yb2Ru2O7
mp-555901,-1.905026055,KCuCO3F
mp-709039,-1.359101825,ZnH2(CO2)2
mp-746688,-1.939705996,K4MnH6(S2O9)2
mp-556401,-2.968387065,Ti2Fe(PO5)2
mp-505163,-2.677413694,UV3O10
mp-695830,-1.395820355,Na2Cu(HO)4
mp-1193268,-1.348169007,Cu3H2(CO4)2
mp-510511,-1.734972716,FeP(H2O3)2
mp-505717,-2.41746982,LiV6O13
mp-628549,-2.16559906,Pr(WO3)5
mp-1199348,-0.669703212,CuH44C12N8(ClO5)2
mp-541049,-3.278408457,Sr7Nb6O21
mp-16831,-3.11044179,CaTi4(PO4)6
mp-6328,-1.176952739,Na2Ti2Sb2O
mp-3519,-2.906004602,ZrSO
mp-556341,-1.486098928,Ti4S8Br6O
mp-18787,-1.340323412,Ba2Mn3(SbO)2
mp-22420,-1.235173372,CuTeO4
mp-1194587,-2.851594457,Na2Y2B2TeO10
mp-1204717,-2.030016592,Ca3MnH12S2O17
mp-1197279,-0.38500484,HgH12C12S2(NO2)2
mp-1079720,-0.413072212,AgO
mp-557307,-3.580152153,Nd5Ti4FeO17
mp-556102,-2.620002015,Na2U(WO5)2
mp-560771,-3.541259128,La4Ti9(Si2O15)2
mp-653248,-2.641752837,Cr3B7ClO13
mp-7249,-3.080500888,Ba3Nb2ZnO9
mp-9039,-2.651269989,Sr4IrO6
mp-1078542,-1.989894433,GdZnAsO
mp-1191216,-1.169892877,Cs4Fe2O5
mp-697264,-1.396925369,CdH2SeO4
mp-1188625,-1.736389014,LuFe4(CuO4)3